# vtk DataFile Version 4.0
Generated by LIGGGHTS
ASCII
DATASET POLYDATA
POINTS 536 float
-0.0132482 -0.0478801 0.0811201 -0.0099194 -0.0484073 0.0811205 -0.00113824 -0.0475623 0.0811205 
0.00275968 -0.0495432 0.0811208 0.00630547 -0.0492281 0.0811197 -0.0222846 -0.0440167 0.0811205 
-0.0160235 -0.0467119 0.0811205 -0.017857 -0.0440174 0.0811119 -0.00817589 -0.0458221 0.0811205 
0.0029916 -0.0464365 0.0811205 0.00906192 -0.0472528 0.0811205 0.0173145 -0.0463366 0.0812539 
-0.0255898 -0.0407594 0.0821183 -0.0191794 -0.0410468 0.0812601 -0.0141671 -0.0425455 0.0821182 
-0.00841319 -0.042812 0.0811205 0.00374568 -0.0432274 0.0811205 0.011812 -0.0404745 0.0821183 
0.0251169 -0.041355 0.0811205 -0.0301566 -0.0380508 0.0812598 0.000595837 -0.0375863 0.0823035 
0.00538187 -0.0398754 0.0811205 0.00829789 -0.0372309 0.0811205 -0.0320084 -0.0345464 0.0821181 
-0.0281463 -0.0349047 0.0811204 -0.0155121 -0.0349615 0.0821183 -0.0118054 -0.03631 0.0811205 
0.0137045 -0.0336556 0.0811201 0.014895 -0.0364501 0.0811205 0.0305127 -0.0360772 0.0821183 
0.034243 -0.0349632 0.0811195 -0.0377363 -0.0320441 0.0811205 -0.0341344 -0.0310162 0.0816532 
-0.0288144 -0.031622 0.0811205 -0.024364 -0.0325156 0.0821186 -0.0208599 -0.0307809 0.0811203 
-0.0156556 -0.0310708 0.081158 -0.00983808 -0.0319729 0.0821185 0.0018106 -0.0325633 0.0821494 
0.0135019 -0.0300114 0.0811199 0.0345632 -0.0300758 0.0821111 0.0369529 -0.0331352 0.0811205 
-0.0406584 -0.0280277 0.0811205 -0.0279518 -0.0264517 0.0821076 -0.0222735 -0.0270359 0.0821183 
0.0128708 -0.0269922 0.0811205 0.0166445 -0.0289545 0.0811551 0.0294796 -0.0288621 0.0821218 
0.0387844 -0.0285563 0.0811197 0.0414979 -0.0272582 0.0811205 -0.0432818 -0.0234523 0.0811166 
-0.0401601 -0.0248693 0.0811205 -0.0312328 -0.0244375 0.0811212 -0.0126283 -0.0230672 0.0821181 
-0.00811493 -0.0241995 0.0811205 0.031604 -0.0241922 0.0811205 -0.0442015 -0.0196973 0.0821196 
-0.0357406 -0.0199606 0.0811205 -0.0225123 -0.0224643 0.0811205 -0.00741724 -0.0198212 0.0821186 
-0.00241935 -0.0217409 0.0811205 -0.0406815 -0.0176206 0.0811205 -0.0258905 -0.0190266 0.0820774 
-0.0219438 -0.0184048 0.0811205 -0.0172635 -0.0179723 0.0811205 -0.0121398 -0.0188433 0.0811205 
-0.00928643 -0.0163967 0.0811202 0.0429198 -0.0178033 0.0811205 0.0457293 -0.0192734 0.0811205 
-0.0450757 -0.0154934 0.0811205 -0.0249917 -0.0146607 0.0811205 -0.0204585 -0.0157651 0.0814748 
-0.0180616 -0.0128545 0.0811205 -0.0129366 -0.0149797 0.0811205 0.00607904 -0.012378 0.0811205 
0.0306408 -0.0136836 0.0811205 0.0343534 -0.014792 0.0821174 0.0409942 -0.0130443 0.0811205 
0.046101 -0.0139532 0.0821187 -0.0456404 -0.0090336 0.0821532 -0.0362346 -0.0105382 0.0821622 
-0.0298997 -0.00919194 0.0811205 -0.022716 -0.0114237 0.0821183 -0.0185066 -0.00987302 0.0811208 
-0.0155891 -0.0105772 0.0811205 -0.00459222 -0.0125468 0.0811205 0.0225122 -0.0117115 0.0811205 
0.0323392 -0.0105986 0.0811205 0.0362878 -0.0113872 0.0811194 0.0396402 -0.0101018 0.0811205 
-0.0404856 -0.00790183 0.0822402 -0.0241428 -0.00668507 0.0811205 -0.0205055 -0.00763163 0.0811194 
-0.013971 -0.00801953 0.0811205 -0.00119746 -0.00804329 0.0811205 0.00988491 -0.00544187 0.0819447 
0.0195606 -0.00843863 0.0822595 0.0252201 -0.00822112 0.0821183 0.0364761 -0.00747391 0.0821528 
0.045285 -0.00858786 0.0811205 0.0468431 -0.00561827 0.0811201 -0.0484177 -0.00488104 0.0821167 
-0.0364506 -0.00493533 0.0811204 -0.0227717 -0.00174654 0.0811159 -0.0174096 -0.00172242 0.0821183 
-0.0139237 -0.00402266 0.0811205 0.00977733 -0.0017036 0.0811204 0.0244035 -0.00161981 0.0821473 
0.0334672 -0.00493809 0.0811205 0.0385565 -0.00291184 0.0824238 -0.0489004 -0.000967728 0.0811193 
-0.0419577 0.00181755 0.0821124 -0.0323249 0.00104302 0.0811206 -0.029329 0.000938447 0.0811201 
0.000972811 -0.00109901 0.0821183 0.019713 -0.00162479 0.0822769 0.0206888 0.00120488 0.0811774 
0.0463197 0.000752425 0.0811539 0.0485614 -0.00139365 0.0811799 0.0496231 0.00154497 0.0811561 
-0.0360541 0.00207215 0.0821184 -0.029887 0.00410491 0.0811205 -0.0329277 0.00469685 0.0811205 
-0.00513755 0.00401216 0.0811205 0.0193889 0.00423612 0.0811121 0.0229712 0.00334381 0.0811205 
0.0480806 0.00509745 0.0821596 -0.0273627 0.00640699 0.0811205 -0.0222469 0.00835948 0.0821183 
-0.00762295 0.00657882 0.0811205 -0.00294791 0.00637533 0.0811205 7.11931e-05 0.00611009 0.0811205 
0.0142259 0.00568415 0.0811206 0.0381914 0.00717959 0.0811276 -0.0442037 0.0114445 0.0821178 
-0.0293637 0.0122579 0.0811205 -0.0168711 0.00896195 0.0818956 0.00231398 0.0103706 0.0821184 
0.0125257 0.00928338 0.0821188 0.0171937 0.0110809 0.0821182 -0.037011 0.0156577 0.0821183 
-0.0261072 0.0127484 0.0811205 -0.021969 0.0130396 0.0811202 -0.00228808 0.0130113 0.0822623 
0.00107931 0.0154962 0.0811205 0.00558739 0.0152177 0.0821183 0.0137417 0.0133111 0.0815123 
0.0226505 0.013179 0.0811205 0.0300792 0.015452 0.0821183 -0.0425965 0.0167483 0.0821168 
-0.0308316 0.0169782 0.0821183 -0.0120546 0.0166333 0.0820309 0.032944 0.0182278 0.0811205 
-0.0397855 0.0198066 0.0811203 -0.0345954 0.0225735 0.0821331 -0.027608 0.0196674 0.0813006 
0.0141813 0.0196091 0.0811762 0.0346841 0.0221798 0.0811205 0.0386608 0.0209649 0.0821183 
-0.0427621 0.0230216 0.0821177 -0.0388452 0.0235378 0.0811205 -0.0312735 0.0247447 0.0824187 
-0.0160744 0.024722 0.0811205 -0.011644 0.024723 0.0811205 -0.000434117 0.0243043 0.0811675 
0.0131011 0.023422 0.081135 0.0399146 0.0250951 0.0811205 -0.040022 0.0273749 0.0821183 
-0.0337265 0.0288432 0.0821182 -0.0285282 0.0276116 0.0822358 -0.0204545 0.0272226 0.0821183 
0.00274451 0.026599 0.082206 0.0353609 0.0269419 0.0811205 0.0388201 0.0292298 0.0820706 
-0.0383391 0.030882 0.0811205 -0.0358432 0.0328026 0.0811058 -0.0185521 0.0321586 0.0824901 
-0.0140147 0.0320367 0.0814139 0.0022894 0.0312088 0.0811205 0.00696308 0.0329045 0.0820345 
0.0272928 0.0321911 0.0811205 0.03145 0.0326031 0.0811205 0.0357324 0.0315818 0.0811112 
-0.00501811 0.0355237 0.0821417 0.000577547 0.0359813 0.0821179 0.00466043 0.0345896 0.0811201 
0.00908598 0.0347274 0.0811001 0.0164844 0.0342598 0.0811205 0.0236777 0.0336045 0.0821197 
0.0296812 0.03601 0.0811189 0.0342846 0.0352706 0.0811198 -0.00770395 0.038351 0.081172 
0.00662868 0.0386475 0.0811205 0.0179639 0.0386407 0.0811667 0.0203202 0.0367407 0.0811242 
0.0241762 0.0376637 0.0811205 0.0310135 0.0387264 0.0811205 -0.0239089 0.0423716 0.0821171 
-0.0156772 0.0412938 0.0811206 -0.0134752 0.0433677 0.0812624 -0.00618974 0.0431697 0.0821203 
0.00417935 0.0405998 0.0811205 0.0216572 0.0406116 0.0821169 0.0269034 0.0404735 0.0821183 
-0.0192036 0.0440411 0.0821278 -0.0160177 0.0462184 0.0811197 -0.00974448 0.0468778 0.0821244 
0.00614976 0.0445999 0.0811168 0.0142288 0.046455 0.0821186 0.0189414 0.0448022 0.0821194 
-0.0135066 0.0478326 0.0811599 -0.0066201 0.0491642 0.0811323 -0.00186464 0.0496546 0.0811205 
0.00116 0.0495393 0.0811205 0.00391203 0.0474857 0.0812392 0.00640668 0.0492133 0.0811328 
0.00987224 0.048338 0.0815133 -0.00421143 -0.0482217 0.0842708 0.00606493 -0.0486353 0.0840488 
-0.0182087 -0.0461929 0.0831261 -0.0128369 -0.0460655 0.0834708 -0.0190703 -0.0428716 0.0851516 
0.000840361 -0.0426084 0.0841519 0.00483896 -0.0435091 0.0852579 0.0092718 -0.0434462 0.0854112 
-0.0199319 -0.0349792 0.0865334 0.0344642 -0.0353145 0.0840885 -0.0213751 -0.0301519 0.0861087 
0.0228227 -0.0328208 0.0851447 0.0250021 -0.0269191 0.0831946 0.0374149 -0.0277186 0.0836518 
0.00940627 -0.025669 0.0841882 -0.0232399 -0.0203626 0.0853445 -0.0108665 -0.0200976 0.0841247 
-0.00460492 -0.0228328 0.0829096 -0.0161108 -0.0166853 0.0845948 0.00586182 -0.0181925 0.0827308 
0.0399677 -0.0188278 0.0850483 -0.0442089 -0.0117578 0.0848112 -0.0155967 -0.00900533 0.0836797 
-0.00378303 -0.0108261 0.0855243 0.00811755 -0.0099338 0.0836269 -0.0472931 -0.00778498 0.085676 
-0.0445468 -0.0061811 0.0847835 -0.0215592 -0.00595766 0.08471 -0.0116804 -0.00721369 0.0834699 
-0.0434035 -0.00294817 0.0824274 -0.0257174 -0.00372953 0.0858126 0.00700483 -0.00376696 0.0845176 
0.0310762 0.000312512 0.0822133 0.0479888 0.000407075 0.0848182 0.0121295 0.00231051 0.0846813 
0.0176576 0.00299513 0.0832172 0.0167755 0.00555882 0.0856215 0.0306136 0.00322751 0.0838607 
0.0442616 0.00277929 0.0824862 0.00812115 0.00767514 0.0842009 0.0273775 0.00641645 0.0859666 
-0.0430238 0.0138688 0.0851098 -0.0398229 0.0140587 0.0850319 0.0394484 0.0140928 0.0820407 
-0.027217 0.0161417 0.0837302 -0.00044276 0.0186744 0.0852928 -0.0444197 0.0198371 0.0855952 
-0.0382628 0.020878 0.0850482 -0.0182124 0.0221476 0.0826927 -0.0148113 0.0216487 0.0854049 
-0.00985197 0.0208967 0.0816082 -0.0345539 0.0254618 0.0849433 -0.0272891 0.0239942 0.0832739 
-0.00307211 0.0229137 0.0851208 0.0289247 0.0248473 0.0830119 0.00541263 0.0281237 0.0852024 
0.0115921 0.0281809 0.0821711 -0.0368579 0.0317167 0.0848004 -0.031598 0.0345276 0.0828017 
0.0136233 0.0345943 0.0851576 0.0328886 0.0346076 0.0848069 -0.0287142 0.0389601 0.0830526 
-0.0188935 0.0382063 0.0841072 -0.00223531 0.0378194 0.0858178 0.0154426 0.0413126 0.0828311 
-0.0141274 0.0465988 0.0838313 0.00819498 0.046078 0.0856385 0.00992259 0.0439753 0.0826513 
-0.00424281 0.0473576 0.083931 0.00209322 0.0474621 0.0849671 0.00219147 -0.0483805 0.0858196 
-0.0292196 -0.037857 0.0872583 0.0261417 -0.0355008 0.0875154 -0.0255895 -0.0312151 0.0860254 
-0.00976247 -0.0310798 0.0867127 0.0104678 -0.0299552 0.0832813 0.0203442 -0.0285468 0.0873909 
-0.0291876 -0.0222865 0.0880444 -0.00616632 -0.0212165 0.0860027 -0.0354154 -0.0158311 0.0861344 
-0.0366686 -0.0158798 0.0889836 -0.027331 -0.0187238 0.0868178 -0.0195226 -0.0178918 0.0881837 
0.0143079 -0.0190594 0.0867994 -0.0223851 -0.0103982 0.0862123 -0.0414488 -0.00868617 0.086026 
0.0115142 -0.00708699 0.0876915 0.0419849 -0.00675562 0.0861898 0.0482342 -0.00859281 0.0867907 
0.0156951 -0.00311649 0.0876054 -0.0271717 0.000183416 0.0859151 0.0201332 -0.000892831 0.0882177 
0.0274282 -0.00130535 0.0863885 -0.00102673 0.00243662 0.0869924 0.0167598 0.00336841 0.0893658 
[...]
POINT_DATA 536
FIELD FieldData 7
id 1 536 int
51 207 96 100 50 199 11 164 48 
59 187 161 2 191 119 228 178 182 
18 21 171 192 87 211 293 132 113 
166 19 208 240 180 168 58 169 193 
342 67 362 46 92 289 77 185 94 
90 303 184 110 74 88 38 34 272 
124 97 134 304 24 30 250 149 65 
173 62 153 141 175 72 176 49 165 
39 138 64 98 80 140 221 259 4 
218 15 70 32 102 95 69 227 86 
183 9 154 45 163 237 93 131 14 
128 109 156 330 115 54 263 35 159 
205 247 85 79 36 111 28 202 224 
10 238 82 197 89 57 292 179 265 
130 22 53 212 127 204 241 305 1 
20 370 3 106 158 322 126 317 232 
254 104 244 23 143 144 117 270 219 
61 120 8 301 174 145 29 83 365 
190 108 71 167 201 41 17 235 5 
246 200 42 47 148 118 379 189 181 
103 37 226 147 91 188 73 139 282 
142 101 231 206 116 194 26 99 236 
177 242 196 114 27 198 121 135 170 
7 81 16 123 136 152 56 243 186 
344 273 151 262 278 269 220 44 239 
6 216 287 203 257 63 367 299 264 
252 275 43 222 274 33 55 375 294 
382 146 280 209 356 245 255 160 112 
122 336 229 13 40 288 215 217 223 
354 66 105 107 150 225 380 25 214 
133 234 313 320 210 68 129 78 195 
302 307 31 281 340 52 309 248 172 
297 279 329 291 396 364 352 76 306 
261 233 286 84 266 381 359 334 267 
333 253 323 363 230 337 276 75 347 
339 268 162 256 318 335 376 360 361 
308 60 326 394 137 319 345 310 346 
353 213 392 12 125 316 155 388 283 
295 378 321 386 349 325 290 358 390 
366 249 387 332 157 341 348 315 284 
285 251 300 258 296 331 327 391 389 
328 277 338 271 384 260 369 398 298 
403 400 408 314 312 401 404 407 406 
368 385 311 351 377 397 402 371 357 
405 343 412 409 414 383 395 420 411 
419 372 373 413 355 415 417 433 429 
431 393 427 422 428 421 423 426 324 
350 430 424 444 410 432 439 445 436 
442 441 418 443 440 416 438 425 457 
437 458 435 453 447 451 455 449 456 
399 374 448 452 450 454 469 466 463 
465 471 461 460 446 467 462 464 459 
468 470 477 434 483 479 480 481 474 
478 484 472 475 473 476 482 492 495 
494 488 491 497 486 496 489 487 485 
493 490 502 499 509 500 507 506 503 
504 501 505 508 510 498 522 511 523 
517 521 518 520 512 519 516 514 515 
526 513 528 532 524 534 531 529 527 
525 533 535 530 536 
type 1 536 int
1 1 1 1 1 1 1 1 1 
1 1 1 1 1 1 1 1 1 
1 1 1 1 1 1 1 1 1 
1 1 1 1 1 1 1 1 1 
1 1 1 1 1 1 1 1 1 
1 1 1 1 1 1 1 1 1 
1 1 1 1 1 1 1 1 1 
1 1 1 1 1 1 1 1 1 
1 1 1 1 1 1 1 1 1 
1 1 1 1 1 1 1 1 1 
1 1 1 1 1 1 1 1 1 
1 1 1 1 1 1 1 1 1 
1 1 1 1 1 1 1 1 1 
1 1 1 1 1 1 1 1 1 
1 1 1 1 1 1 1 1 1 
1 1 1 1 1 1 1 1 1 
1 1 1 1 1 1 1 1 1 
1 1 1 1 1 1 1 1 1 
1 1 1 1 1 1 1 1 1 
1 1 1 1 1 1 1 1 1 
1 1 1 1 1 1 1 1 1 
1 1 1 1 1 1 1 1 1 
1 1 1 1 1 1 1 1 1 
1 1 1 1 1 1 1 1 1 
1 1 1 1 1 1 1 1 1 
1 1 1 1 1 1 1 1 1 
1 1 1 1 1 1 1 1 1 
1 1 1 1 1 1 1 1 1 
1 1 1 1 1 1 1 1 1 
1 1 1 1 1 1 1 1 1 
1 1 1 1 1 1 1 1 1 
1 1 1 1 1 1 1 1 1 
1 1 1 1 1 1 1 1 1 
1 1 1 1 1 1 1 1 1 
1 1 1 1 1 1 1 1 1 
1 1 1 1 1 1 1 1 1 
1 1 1 1 1 1 1 1 1 
1 1 1 1 1 1 1 1 1 
1 1 1 1 1 1 1 1 1 
1 1 1 1 1 1 1 1 1 
1 1 1 1 1 1 1 1 1 
1 1 1 1 1 1 1 1 1 
1 1 1 1 1 1 1 1 1 
1 1 1 1 1 1 1 1 1 
1 1 1 1 1 1 1 1 1 
1 1 1 1 1 1 1 1 1 
1 1 1 1 1 1 1 1 1 
1 1 1 1 1 1 1 1 1 
1 1 1 1 1 1 1 1 1 
1 1 1 1 1 1 1 1 1 
1 1 1 1 1 1 1 1 1 
1 1 1 1 1 1 1 1 1 
1 1 1 1 1 1 1 1 1 
1 1 1 1 1 1 1 1 1 
1 1 1 1 1 1 1 1 1 
1 1 1 1 1 1 1 1 1 
1 1 1 1 1 1 1 1 1 
1 1 1 1 1 1 1 1 1 
1 1 1 1 1 1 1 1 1 
1 1 1 1 1 
i 3 536 int
0 0 0 0 0 0 0 0 0 
0 0 0 0 0 0 0 0 0 
0 0 0 0 0 0 0 0 0 
0 0 0 0 0 0 0 0 0 
0 0 0 0 0 0 0 0 0 
0 0 0 0 0 0 0 0 0 
0 0 0 0 0 0 0 0 0 
0 0 0 0 0 0 0 0 0 
0 0 0 0 0 0 0 0 0 
0 0 0 0 0 0 0 0 0 
0 0 0 0 0 0 0 0 0 
0 0 0 0 0 0 0 0 0 
0 0 0 0 0 0 0 0 0 
0 0 0 0 0 0 0 0 0 
0 0 0 0 0 0 0 0 0 
0 0 0 0 0 0 0 0 0 
0 0 0 0 0 0 0 0 0 
0 0 0 0 0 0 0 0 0 
0 0 0 0 0 0 0 0 0 
0 0 0 0 0 0 0 0 0 
0 0 0 0 0 0 0 0 0 
0 0 0 0 0 0 0 0 0 
0 0 0 0 0 0 0 0 0 
0 0 0 0 0 0 0 0 0 
0 0 0 0 0 0 0 0 0 
0 0 0 0 0 0 0 0 0 
0 0 0 0 0 0 0 0 0 
0 0 0 0 0 0 0 0 0 
0 0 0 0 0 0 0 0 0 
0 0 0 0 0 0 0 0 0 
0 0 0 0 0 0 0 0 0 
0 0 0 0 0 0 0 0 0 
0 0 0 0 0 0 0 0 0 
0 0 0 0 0 0 0 0 0 
0 0 0 0 0 0 0 0 0 
0 0 0 0 0 0 0 0 0 
0 0 0 0 0 0 0 0 0 
0 0 0 0 0 0 0 0 0 
0 0 0 0 0 0 0 0 0 
0 0 0 0 0 0 0 0 0 
0 0 0 0 0 0 0 0 0 
0 0 0 0 0 0 0 0 0 
0 0 0 0 0 0 0 0 0 
0 0 0 0 0 0 0 0 0 
0 0 0 0 0 0 0 0 0 
0 0 0 0 0 0 0 0 0 
0 0 0 0 0 0 0 0 0 
0 0 0 0 0 0 0 0 0 
0 0 0 0 0 0 0 0 0 
0 0 0 0 0 0 0 0 0 
0 0 0 0 0 0 0 0 0 
0 0 0 0 0 0 0 0 0 
0 0 0 0 0 0 0 0 0 
0 0 0 0 0 0 0 0 0 
0 0 0 0 0 0 0 0 0 
0 0 0 0 0 0 0 0 0 
0 0 0 0 0 0 0 0 0 
0 0 0 0 0 0 0 0 0 
0 0 0 0 0 0 0 0 0 
0 0 0 0 0 0 0 0 0 
0 0 0 0 0 0 0 0 0 
0 0 0 0 0 0 0 0 0 
0 0 0 0 0 0 0 0 0 
0 0 0 0 0 0 0 0 0 
0 0 0 0 0 0 0 0 0 
0 0 0 0 0 0 0 0 0 
0 0 0 0 0 0 0 0 0 
0 0 0 0 0 0 0 0 0 
0 0 0 0 0 0 0 0 0 
0 0 0 0 0 0 0 0 0 
0 0 0 0 0 0 0 0 0 
0 0 0 0 0 0 0 0 0 
0 0 0 0 0 0 0 0 0 
0 0 0 0 0 0 0 0 0 
0 0 0 0 0 0 0 0 0 
0 0 0 0 0 0 0 0 0 
0 0 0 0 0 0 0 0 0 
0 0 0 0 0 0 0 0 0 
0 0 0 0 0 0 0 0 0 
0 0 0 0 0 0 0 0 0 
0 0 0 0 0 0 0 0 0 
0 0 0 0 0 0 0 0 0 
0 0 0 0 0 0 0 0 0 
0 0 0 0 0 0 0 0 0 
0 0 0 0 0 0 0 0 0 
0 0 0 0 0 0 0 0 0 
0 0 0 0 0 0 0 0 0 
0 0 0 0 0 0 0 0 0 
0 0 0 0 0 0 0 0 0 
0 0 0 0 0 0 0 0 0 
0 0 0 0 0 0 0 0 0 
0 0 0 0 0 0 0 0 0 
0 0 0 0 0 0 0 0 0 
0 0 0 0 0 0 0 0 0 
0 0 0 0 0 0 0 0 0 
0 0 0 0 0 0 0 0 0 
0 0 0 0 0 0 0 0 0 
0 0 0 0 0 0 0 0 0 
0 0 0 0 0 0 0 0 0 
0 0 0 0 0 0 0 0 0 
0 0 0 0 0 0 0 0 0 
0 0 0 0 0 0 0 0 0 
0 0 0 0 0 0 0 0 0 
0 0 0 0 0 0 0 0 0 
0 0 0 0 0 0 0 0 0 
0 0 0 0 0 0 0 0 0 
0 0 0 0 0 0 0 0 0 
0 0 0 0 0 0 0 0 0 
0 0 0 0 0 0 0 0 0 
0 0 0 0 0 0 0 0 0 
0 0 0 0 0 0 0 0 0 
0 0 0 0 0 0 0 0 0 
0 0 0 0 0 0 0 0 0 
0 0 0 0 0 0 0 0 0 
0 0 0 0 0 0 0 0 0 
0 0 0 0 0 0 0 0 0 
0 0 0 0 0 0 0 0 0 
0 0 0 0 0 0 0 0 0 
0 0 0 0 0 0 0 0 0 
0 0 0 0 0 0 0 0 0 
0 0 0 0 0 0 0 0 0 
0 0 0 0 0 0 0 0 0 
0 0 0 0 0 0 0 0 0 
0 0 0 0 0 0 0 0 0 
0 0 0 0 0 0 0 0 0 
0 0 0 0 0 0 0 0 0 
0 0 0 0 0 0 0 0 0 
0 0 0 0 0 0 0 0 0 
0 0 0 0 0 0 0 0 0 
0 0 0 0 0 0 0 0 0 
0 0 0 0 0 0 0 0 0 
0 0 0 0 0 0 0 0 0 
0 0 0 0 0 0 0 0 0 
0 0 0 0 0 0 0 0 0 
0 0 0 0 0 0 0 0 0 
0 0 0 0 0 0 0 0 0 
0 0 0 0 0 0 0 0 0 
0 0 0 0 0 0 0 0 0 
0 0 0 0 0 0 0 0 0 
0 0 0 0 0 0 0 0 0 
0 0 0 0 0 0 0 0 0 
0 0 0 0 0 0 0 0 0 
0 0 0 0 0 0 0 0 0 
0 0 0 0 0 0 0 0 0 
0 0 0 0 0 0 0 0 0 
0 0 0 0 0 0 0 0 0 
0 0 0 0 0 0 0 0 0 
0 0 0 0 0 0 0 0 0 
0 0 0 0 0 0 0 0 0 
0 0 0 0 0 0 0 0 0 
0 0 0 0 0 0 0 0 0 
0 0 0 0 0 0 0 0 0 
0 0 0 0 0 0 0 0 0 
0 0 0 0 0 0 0 0 0 
0 0 0 0 0 0 0 0 0 
0 0 0 0 0 0 0 0 0 
0 0 0 0 0 0 0 0 0 
0 0 0 0 0 0 0 0 0 
0 0 0 0 0 0 0 0 0 
0 0 0 0 0 0 0 0 0 
0 0 0 0 0 0 0 0 0 
0 0 0 0 0 0 0 0 0 
0 0 0 0 0 0 0 0 0 
0 0 0 0 0 0 0 0 0 
0 0 0 0 0 0 0 0 0 
0 0 0 0 0 0 0 0 0 
0 0 0 0 0 0 0 0 0 
0 0 0 0 0 0 0 0 0 
0 0 0 0 0 0 0 0 0 
0 0 0 0 0 0 0 0 0 
0 0 0 0 0 0 0 0 0 
0 0 0 0 0 0 0 0 0 
0 0 0 0 0 0 0 0 0 
0 0 0 0 0 0 0 0 0 
0 0 0 0 0 0 0 0 0 
0 0 0 0 0 0 0 0 0 
0 0 0 0 0 0 0 0 0 
0 0 0 0 0 0 0 0 0 
0 0 0 0 0 0 
v 3 536 double
0.0295934 -0.00815599 -0.00017547 0.0316569 -0.0122924 -5.83245e-09 -0.0192534 -0.00310916 -2.01782e-05 
-0.0263777 0.00458993 -0.000975695 -0.0220508 6.0455e-05 0.000208946 -0.0226939 0.0247146 -2.7455e-14 
0.0283378 0.00440791 0.00146641 -0.00501492 -0.00452902 -0.0281657 0.105148 -0.0378996 6.7099e-06 
0.0294087 -0.0130624 6.81967e-11 -0.0155672 0.00824099 1.02614e-13 0.0583781 0.0712447 -0.00738068 
-0.00250593 0.0211859 -2.53511e-11 0.0691161 0.0831254 -0.183315 0.0153012 -0.00237266 -3.16647e-05 
0.0843906 -0.0351749 -8.05201e-06 0.0948932 -0.000270277 -2.68679e-10 -0.0144777 7.58157e-05 8.83545e-06 
0.0530394 0.0391513 6.09383e-13 0.0148412 0.0786435 0.00641633 0.041791 0.0557986 0.0562163 
0.0911143 0.00493604 -1.66822e-11 -0.0525382 0.0434839 7.73299e-12 -0.0156368 0.0208674 -3.03306e-05 
-0.00782813 0.057591 0.000275314 0.114528 0.122341 -0.00100766 0.0366329 -0.0141915 1.66907e-13 
0.122917 -0.0110561 0.00391847 -0.065657 -0.00419107 1.03696e-13 0.00365534 0.0372267 -5.09454e-06 
0.0118117 0.0192015 -0.0001748 -0.013 0.0306854 3.40867e-08 0.0290738 0.104709 -0.0124004 
0.0129335 0.0320926 1.02631e-11 0.0255284 -0.0570577 -0.000404374 0.00793552 0.0332135 0.00244756 
-0.0167277 0.125006 -0.0270227 -0.07844 0.0258901 0.00116019 -0.00167442 0.0565141 0.0222279 
-0.00276707 0.0238828 -0.000495512 0.048218 0.0502225 0.0149588 0.0269238 0.0352899 -1.68448e-05 
0.00751082 -0.00125008 2.07834e-12 -0.0360234 0.0506939 -0.013778 0.0183735 -0.0191375 2.66812e-05 
-0.0438657 0.0315828 7.5314e-06 -0.0649737 0.0495173 0.00498456 -0.00287185 -0.0284763 -0.00507074 
0.0128947 0.0331842 0.00016 0.0185473 0.0281053 1.78639e-05 -0.0389971 -0.0332219 -0.00399641 
-0.0105271 -0.00152664 -0.00021854 0.0309531 -0.138171 0.00758284 -0.0229291 0.158496 -0.0014353 
0.0441326 -0.00342361 6.52432e-07 0.134703 -0.00730292 -9.11459e-05 0.0122145 -0.0216221 0.00307441 
0.0222043 -0.330888 -1.79938e-07 0.0206406 0.0117603 -4.38276e-13 0.0336713 0.017949 0.00130068 
0.0282641 0.0801394 -9.48168e-06 0.0325899 -0.0337676 3.115e-13 0.00406771 0.00127205 0.00518516 
-0.0359719 0.0795859 -7.75768e-09 -0.0555163 0.0214872 -3.51667e-11 -0.0322298 -0.0669336 1.11915e-10 
0.00592876 0.0132093 0.00264903 0.00501519 0.00183043 -3.18602e-12 0.0115735 0.00269142 6.09374e-13 
-0.076018 -0.0002175 -4.48415e-07 -0.000424757 -0.0303966 -1.20331e-06 0.0934937 -0.0941183 -0.000992397 
-0.000888128 -0.0393904 0.000348076 0.0287998 0.00746998 -4.01992e-13 -0.0240138 0.0156126 3.62578e-14 
0.0145455 0.0300225 1.53042e-05 0.000241491 -0.0282859 -0.0114985 0.102594 0.0429486 1.00815e-07 
-0.0692621 -0.163343 0.00102211 -0.0187994 0.000271851 0.0259527 -0.0675187 0.0312002 0.0366007 
-0.0216994 -0.0266641 -4.65211e-13 0.066651 -0.0589429 -3.05706e-06 0.0548733 -0.0156003 -0.00126726 
0.0541446 -0.0307452 7.55067e-05 0.0635615 -0.148717 -8.59372e-14 -0.0497921 0.0612 -4.01992e-13 
0.101875 0.0365668 -2.12913e-13 0.0490112 -0.039142 0.00191748 0.0504337 0.0246963 -1.26771e-07 
-0.185758 0.0136235 0.033681 0.132983 -0.0410017 -4.95846e-10 0.0794009 -0.021302 0.00521809 
-0.00795116 0.0225346 1.31546e-05 -0.131935 0.157869 3.46779e-13 0.16251 -0.0871763 0.0726687 
0.128907 -0.0546972 -0.0287063 0.134753 -0.159971 9.52482e-06 -0.0460843 -0.0088045 -0.013846 
-0.0477183 -0.0862254 -1.51468e-07 -0.0625299 -0.0381284 0.000667943 0.00961931 0.0316856 0.00169045 
0.0286775 0.130571 0.000192809 -0.0129422 0.0812975 -0.00149911 0.0312447 0.0312321 -1.6976e-10 
0.00568026 -0.00214531 -1.49147e-13 0.124571 0.0823701 -0.00222873 0.234198 0.0904702 0.0285635 
0.0150677 0.0686523 -8.68869e-05 -0.0452883 0.00220362 -0.0225366 0.00533792 0.0609631 0.00011902 
0.00283411 0.0615553 -0.00176186 -0.00706249 -0.0283035 -0.0113271 0.0155723 0.0109138 0.000223494 
0.172453 -0.18684 -2.721e-13 0.246844 -0.0559931 0.0628147 0.148152 0.0193971 -0.00352726 
0.0230247 -0.103224 0.0411943 0.0514829 -0.104071 0.0435694 -0.00475635 -0.0767385 0.016171 
0.0333986 -0.0564213 0.00245223 -0.00108361 0.0123948 3.44438e-12 -0.0173605 -0.0236791 2.99503e-13 
0.0318075 -0.166823 -6.18718e-12 0.0743173 0.00523555 0.0260016 0.0835006 0.0220721 -1.37438e-05 
-0.0187614 -0.0761543 0.0121052 -0.00501203 0.03048 -4.65202e-13 0.0423119 -0.046341 -1.46186e-05 
0.0101633 -0.219459 -2.11463e-13 0.00462705 -0.114363 -1.98489e-09 0.00749383 -0.108109 9.98575e-09 
-0.235587 -0.103252 0.000267661 -0.170451 0.218384 0.0285907 -0.0477369 -0.0175624 -0.00123067 
-0.0197828 0.0287479 5.10837e-05 0.140182 -0.296996 0.318481 0.112689 -0.0723762 -0.000362878 
0.0392917 -0.051504 0.000723558 -0.00173446 -0.023003 1.77158e-05 -0.0430698 0.10279 -1.42436e-07 
0.00561757 0.0359256 4.61404e-06 0.121105 0.0310573 -0.0461264 0.069735 -0.09676 0.0482852 
0.0982585 -0.00572895 0.000656753 0.0636211 -0.0590831 -1.30635e-10 -0.00591618 0.0288966 0.0354524 
-0.0634944 -0.038202 -8.27677e-14 -0.0709583 0.0342942 3.05684e-13 0.00335162 -0.0124038 -0.000451345 
0.0617221 -0.00528895 7.01776e-11 0.283863 -0.00013241 0.100635 -0.0279987 -0.0133211 1.81291e-10 
0.0127392 -0.0160335 -0.00125188 -0.0606571 -0.0334464 0.0301295 0.10394 -0.0556748 0.028102 
-0.0559831 0.0312501 -0.0255358 0.0771936 0.0284695 -6.56419e-13 -0.00199035 0.0635465 -1.62966e-14 
0.00114061 -0.0130109 0.000236423 0.00628089 0.0218759 2.45573e-06 -0.0554098 0.03806 0.235333 
-0.0588773 0.013824 -5.22645e-10 -0.109603 -0.173077 -2.07417e-05 -0.189437 -0.131022 0.0218665 
0.0895748 0.132476 -0.04741 0.0488613 -0.00274832 -3.11587e-10 6.22383e-05 -0.00943967 -2.65418e-06 
0.0620802 0.0565443 0.000119813 0.0428295 -0.10659 0.258892 -0.116036 0.0246767 -6.12727e-05 
-0.125202 -0.16795 0.0490334 -0.0169689 0.00680634 -7.60977e-11 0.0115536 0.077177 0.0772053 
0.000653248 -0.00716084 5.99978e-05 0.00302092 -0.00778875 0.0137244 -0.0329973 -0.00647462 0.122376 
-0.658016 -0.162379 0.131094 -0.0972385 0.0394109 -3.16751e-08 0.17322 0.00396943 -0.472763 
0.0372048 -0.00583767 -5.11919e-05 -0.00355255 -0.0519264 -5.2848e-13 -0.00487982 0.107799 0.0110641 
-0.0521374 0.223732 0.00605429 0.0508456 0.122982 0.000674532 0.107929 0.0622945 -0.0099515 
0.152761 0.14144 -0.140808 0.0546528 0.0184299 6.99888e-11 0.0279305 -0.029131 -0.00297818 
0.0558889 -0.0381069 0.00466564 -0.0021453 -0.00409133 0.00158376 0.0713091 -0.0279104 0.00348613 
-0.00636483 -0.0537847 4.48792e-08 0.114985 -0.0406989 0.00750194 0.115881 -0.0706219 -0.00421513 
0.00382594 -0.00707246 -4.42406e-05 0.0185559 -0.0148761 -1.58906e-06 -0.0310723 -0.0143813 -0.000736382 
0.0342354 0.000444684 0.000688634 0.0656892 -0.0127518 -0.0152794 0.0048761 -0.052964 0.00596461 
0.0142928 -0.00828854 -1.35087e-06 0.0152097 -0.00776717 -0.00147218 0.0080702 -0.00485539 1.54668e-07 
-0.0311201 0.00649214 0.00601865 -0.0379991 0.00128012 0.00119072 -0.0301943 -0.0642816 -0.00220657 
0.00324443 0.0531027 0.00565903 -0.0028504 -0.0144177 0.00763194 0.00725284 -0.00793129 -0.00577498 
-0.020748 -0.021548 0.021355 -0.0426095 -0.032321 -0.00374135 -0.0101855 -0.00440725 -1.00605e-05 
-0.00600284 -0.00722573 2.08884e-05 0.0594092 -0.0354421 0.102286 0.140809 -0.0600574 -0.0159202 
-0.052586 -0.0269677 -0.171591 0.132724 -0.244439 0.0297623 0.0173055 0.029403 -0.0022678 
-0.0331332 -0.00305002 -0.0566749 0.0691022 0.00948904 -0.0218048 -0.0210997 0.0423256 -0.123599 
0.0278593 -0.200885 -0.273627 0.158495 0.150516 -0.241142 0.0308943 -0.142474 0.0255553 
0.162955 -0.108273 0.320098 0.00546905 0.0134696 -0.00056506 0.0689521 0.183422 0.101879 
-0.115602 -0.0417668 -0.0820566 -0.0503435 -0.143262 0.0210783 0.0425869 0.0582332 0.00814993 
0.0580562 0.284883 -0.554903 0.0354817 0.075227 0.0130303 0.0423852 0.10912 0.00263101 
0.0510678 -0.0219595 -0.0669468 -0.257657 -0.0951061 -0.221002 -0.051683 0.0914429 -0.0397772 
-0.0754265 0.154091 -0.331972 -0.144926 -0.0255786 -0.0327541 -0.00516903 0.0732898 -0.0711807 
0.0044046 0.0653963 -0.13364 -0.3763 0.888048 -0.788865 -0.0394919 -0.0137256 0.103598 
-0.0741002 0.0211382 -0.0282702 0.144265 0.0568021 -0.00281447 -0.0550702 -0.0553458 0.0573981 
-0.0520875 0.0630235 -0.024029 0.0916179 0.0380303 0.0888615 0.142098 -0.0533934 0.134688 
-0.319647 -0.0356953 -0.245323 -0.0346341 -0.116056 0.130212 0.0172205 -0.155425 -0.0108792 
-0.0509704 0.146234 0.0286403 0.0842993 0.303019 -0.126988 -0.431527 0.219794 -0.404107 
-0.0772966 -0.0733298 -0.138404 0.071147 -0.157961 0.0504571 -0.108811 -0.0575267 0.11775 
-0.0324357 -0.0394677 0.0129945 0.0662633 -0.15957 -0.193121 -0.691362 0.559023 0.0102521 
-0.110286 -0.182342 0.348457 0.0365721 0.0460918 -0.0237824 -0.00789185 -0.0149487 -0.00501763 
-0.120204 -0.154793 -0.157117 0.253274 0.152534 -0.200505 0.246352 0.161976 -0.19772 
-0.564711 0.582406 -0.591466 0.0689546 0.00157723 -0.0753647 -0.167975 -0.0376086 0.303062 
0.0697902 -0.187247 0.268302 -0.0733819 0.0851395 0.00639362 0.0668547 -0.0247715 0.0536583 
0.180345 -0.0964903 0.284584 0.0202803 0.0366803 0.0485361 -0.0614991 0.0736461 0.0140983 
0.0493746 -0.0210249 0.0853391 -0.0216185 -0.0296114 -0.00821182 0.106931 0.0487256 -0.353792 
-0.256719 -0.344356 -0.048709 0.0338371 0.201023 -0.049486 0.0788294 0.0127685 -0.0576874 
-0.0636169 -0.0511322 -0.0154087 0.138946 0.117108 -0.0269869 0.0115481 -0.0568342 -0.0114682 
0.0710323 -0.116428 -0.0828415 -0.119485 -0.0851952 0.161926 0.142715 0.0203345 -0.0969802 
0.0143424 -0.144645 -0.247718 0.0253848 0.141605 -0.245789 0.0122756 -0.0827842 -0.152379 
-0.135623 0.475888 0.149045 0.165112 -0.562887 -1.57685 0 0 0.503051 
0.211286 -0.056712 0.0837921 -0.213745 0.0513924 -0.0539818 0.0569566 0.232556 -0.264498 
0.00766669 -0.0161832 -0.179173 -0.0468811 0.102653 0.0116125 0.28616 0.110359 -0.356321 
0.076637 -0.315773 0.3289 -0.0437941 -0.156345 -0.16284 0.0958403 -0.279432 0.0825809 
0.216577 0.188582 0.698473 -0.0773434 -0.146888 -0.0116318 -0.0795465 -0.270179 -0.195567 
0.237372 0.599126 0.264088 0.248236 -0.0462182 -0.174249 0.517364 0.208485 -0.113562 
-0.770917 0.0056525 -0.0865912 -0.0220867 0.0208999 -0.451355 0.291987 0.175963 0.0644163 
0.0423512 0.159716 -0.41713 0.0852086 0.096954 0.008145 -0.189147 -0.00666974 -0.122918 
-0.301925 0.119082 0.0196679 0.145197 -0.185934 -0.223942 -0.15422 -0.00778367 -0.300482 
0.142118 0.476821 -1.00841 0.163018 -0.669849 -0.482542 0.0828923 0.0429269 -0.245889 
-0.380272 0.277276 0.187616 -0.402803 0.448143 -0.00148356 -0.17322 0.49249 -0.522896 
0.215542 0.0376584 -0.211882 -0.0757266 0.69352 -0.402618 -0.193374 -0.0382781 -1.37105 
0.0311973 -0.0895821 -1.78144 0.0886742 -0.264375 -0.34503 0.365466 -0.246671 0.0203449 
-0.118998 -0.186277 0.335633 0.278588 0.0436485 -0.308186 0.0812808 -0.191818 0.0925867 
0.0139545 0.580806 -1.00725 -0.446906 -0.181407 -0.0101125 0 0 -2.05198 
0.098191 0.116217 -0.316225 0.0103519 -0.242639 -0.0556503 0.174813 -0.0058522 0.362421 
-0.157321 -0.215359 -0.0130516 -0.846342 -0.0257818 -1.29543 0.466165 0.133682 0.124517 
0.122747 0.0628427 -0.173649 0.105532 -0.727004 -0.32029 0.175784 0.0513217 -0.214028 
-0.0371428 0.408356 -0.353225 -0.0400999 -0.0297719 0.229401 -0.00143627 0.186309 0.342471 
0.164522 -0.291191 -0.130021 0.11467 0.0821959 0.991765 0 0 -2.03334 
0.311485 -0.172705 0.571324 0.210779 0.159892 -0.293336 0 0 -2.03863 
-0.141517 -0.104238 0.258711 0.145609 0.169671 -0.566101 -0.00892329 0.230722 0.187708 
-0.545921 -0.0518522 0.343379 0.0112492 0.35451 -0.0555852 -0.019942 -0.0437004 0.093493 
0.00207318 -0.146134 -0.121206 0.0176046 -0.0424174 -0.328137 -0.0180665 0.174848 0.0385856 
-0.188158 -0.187957 -1.46915 0.0924676 0.195733 -0.071253 0 0 0.171334 
0.243489 0.655444 -0.539328 0 0 -2.01813 -1.25432 -0.242348 -0.18374 
0 0 0.151133 -0.0997808 0.0931724 -0.228745 0.194869 0.167907 -0.0708654 
0.520665 -0.113726 -0.146993 0.0582367 -0.0336216 -1.90733 0.178672 0.108002 -0.201188 
0.0348521 -0.593283 -0.828943 0 0 -1.9528 -0.196507 -0.275933 0.0923358 
0 0 -1.94436 0 0 -1.93965 0 0 -1.93965 
0.15384 0.0127614 -0.590321 -0.158801 -0.015594 -1.2367 0 0 -1.93641 
0 0 -1.93455 0 0 -1.91002 0 0 -1.90914 
0.698112 0.13825 -0.667234 0.163628 0.515915 -1.1521 0.0652858 -0.171796 -0.933523 
0.0935198 -0.531325 -0.640859 -0.146185 -0.0464798 -1.25034 0 0 -1.89835 
0.65274 0.40028 -1.49015 -0.182175 -0.00389356 -1.13885 0.193785 -0.0506408 -0.791166 
-0.075766 0.459629 -0.80585 -0.424018 -0.120406 -1.46679 0 0 -1.8543 
0.764549 -0.0776067 -0.775872 0 0 -1.85921 0.180538 -0.0428505 -0.119272 
-0.0223551 0.733847 -0.432782 -0.227864 0.119742 -1.69125 0 0 -1.83939 
0 0 -1.84665 -0.138914 0.0203881 -1.04587 -0.110291 -0.0262483 -1.04263 
0 0 -1.79505 -0.0540609 0.515499 -0.123525 0 0 -1.80015 
0 0 -1.7979 0 0 -1.7821 0 0 -1.78485 
0 0 -1.76886 -0.180646 0.0252931 -0.902141 0 0 -1.74492 
0 0 -1.72619 0 0 -1.72972 -0.404251 -0.21829 -1.25808 
0 0 -1.71245 0 0 -1.70568 -0.14587 0.0203461 -0.879016 
0.00631507 -0.0995674 -0.971731 -0.0508445 0.154808 -1.62383 0 0 -1.70607 
0 0 -1.66889 -0.457617 0.036473 -1.17238 -0.448644 0.147748 -1.17213 
0 0 -1.67086 0 0 -1.66154 0 0 -1.63554 
0 0 -1.64663 0 0 -1.6119 -0.180982 0.0292722 -0.565885 
0 0 -1.61023 0 0 -1.62897 -0.422091 -0.523811 -0.871525 
0 0 -1.59532 -0.605873 -0.0971961 -0.984777 0 0 -1.57344 
-0.317978 0.0209458 -1.11573 0 0 -1.57933 -0.404973 -0.339486 -0.891757 
0 0 -1.55628 0 0 -1.55108 0 0 -1.55588 