# vtk DataFile Version 4.0
Generated by LIGGGHTS
ASCII
DATASET POLYDATA
POINTS 306 float
0.0183222 -0.0445879 0.0817473 -0.0270743 -0.0326394 0.0821181 -0.0352931 -0.034568 0.0811205 
-0.02026 -0.0331496 0.0833765 -0.00391592 -0.0282808 0.0811205 -0.0141357 -0.0117414 0.0815187 
-0.0177959 -0.0045206 0.0811205 0.0334641 -0.00482671 0.0858414 -0.0382241 -0.00258817 0.084649 
-0.014165 0.00176031 0.0821184 -0.0319759 0.00433288 0.0811205 -0.023825 0.00424738 0.0812029 
0.0475407 0.0112476 0.0811205 -0.0374257 0.0136267 0.0821183 -0.0333204 0.0119901 0.0811205 
-0.0222389 0.0136478 0.0811205 0.00214053 0.0138285 0.0822355 -0.00900435 0.0176154 0.0865028 
-0.0155642 0.0161795 0.0837434 -0.00316003 0.0238016 0.0821183 0.0341175 0.0253081 0.0812185 
-0.0336693 0.0284297 0.0821184 -0.0308046 0.0251968 0.0813503 -0.0246797 0.0310279 0.0839382 
0.000124215 0.0353532 0.0818075 -0.0344511 0.0345785 0.0811869 -0.0288096 0.0375391 0.0825051 
-0.00833136 0.0449133 0.0811205 0.00275055 0.0484674 0.0811203 -0.00713321 -0.0386353 0.0857551 
0.0199453 -0.0335661 0.0895234 -0.0136357 -0.0294305 0.086108 -0.00891467 -0.0325491 0.0849179 
0.0181477 -0.0334344 0.0845446 -0.0258237 -0.0157704 0.0842232 -0.0179604 -0.0172685 0.0812973 
-0.00845261 -0.0158171 0.0832785 0.013753 -0.0118491 0.0834229 -0.0461371 -0.00997978 0.082822 
-0.0377277 0.00600302 0.0834253 -0.00789548 -0.00126559 0.0823579 0.00254775 0.000425592 0.0860519 
-0.0256251 0.00365902 0.0837018 0.0289618 0.00261548 0.0822198 -0.00651357 0.0071246 0.0824493 
-0.017354 0.0103364 0.0870037 -0.0213281 0.016795 0.0825727 -0.00640205 0.0156776 0.0871187 
-0.0329183 0.0186743 0.0823456 -0.0198076 0.0209222 0.0821252 0.00814257 0.0229136 0.0811266 
0.017494 0.0195812 0.0889968 0.039177 0.0201287 0.0863909 -0.042662 0.0232887 0.0821618 
0.0197725 0.0283836 0.089015 -0.00883408 0.0335675 0.082176 0.00990208 0.0346894 0.082323 
0.00922922 0.0403813 0.0820928 0.00431713 0.0437798 0.0828456 0.0102821 0.0462271 0.0838041 
0.00928351 -0.0409771 0.0872038 -0.0219668 -0.0387288 0.0821211 0.0331086 -0.0344554 0.0872229 
-0.0346232 -0.0263105 0.0823099 -0.00211763 -0.0232702 0.0868127 -0.0191696 -0.0151739 0.0863981 
-0.0022963 -0.0104754 0.0857495 -0.0290142 -0.0124604 0.090966 -0.0422438 -0.0140653 0.0851403 
-0.0267665 -0.0115787 0.0842348 0.0457051 -0.00590986 0.0891456 -0.0325361 -0.00228409 0.0868168 
-0.0320445 0.00219309 0.0908593 -0.0151154 -0.00228713 0.0860426 -0.0100821 -0.000770381 0.087343 
-0.00770492 0.00489714 0.0876571 0.0413491 0.0147465 0.0904222 -0.00461067 0.0201597 0.0909768 
-0.0291094 0.0288228 0.0824081 0.0336835 0.028309 0.0824176 0.0348516 0.031543 0.0818277 
-0.0139542 0.0317285 0.0878311 -0.0318856 0.0314509 0.085047 0.00189794 0.0395346 0.0830502 
0.0149352 0.0449192 0.090639 -0.0122977 -0.0477495 0.0896156 0.000513327 -0.037234 0.0861467 
-0.00946766 -0.0263203 0.0944339 -0.0256428 -0.0200272 0.0848498 0.00582446 -0.0167578 0.0839616 
0.0376327 -0.017378 0.0943071 0.0353482 -0.012174 0.0819702 -0.0451356 -0.00254897 0.0832164 
-0.0237814 -0.000722114 0.0888235 0.0483983 0.00606802 0.0889254 -0.0441547 0.0146333 0.09008 
-0.0240715 0.0217596 0.0846743 0.0280893 0.0208762 0.0876591 0.0262197 0.0338431 0.0936373 
-0.00193141 -0.0488367 0.0944634 0.0156724 -0.0417724 0.0895078 0.0311126 -0.0386796 0.0937951 
-0.0158352 -0.0285597 0.0930352 -0.000398206 -0.0230339 0.0924072 0.0384919 -0.0210997 0.0812782 
-0.0337087 -0.0108306 0.0972445 0.0482976 0.00203581 0.0824678 0.0380996 0.0106842 0.0839692 
0.0352803 0.0157496 0.0839633 -0.0147817 0.0211848 0.0952024 0.0392561 0.0268327 0.0892694 
-0.0134176 0.0265745 0.0978073 0.00784033 0.0256786 0.0943081 -0.013621 0.0335832 0.0914001 
0.0329374 0.0350481 0.0945015 -0.0127018 0.0383043 0.093261 0.00356171 0.04808 0.0933455 
-0.00676178 -0.041834 0.0999514 0.0114037 -0.0394429 0.100165 0.017453 -0.0376727 0.0955829 
-0.000992854 -0.0338985 0.0998944 0.0138463 -0.0353703 0.0966325 -0.0242922 -0.0328428 0.0989307 
0.0319689 -0.0241855 0.0991646 -0.0214939 -0.0251019 0.0851095 -0.00314877 -0.0166089 0.0979499 
0.0274407 -0.0177667 0.0997895 -0.0267651 -0.0071909 0.097721 0.019218 0.0153082 0.0917414 
0.0228436 0.0271027 0.0837264 0.0300866 0.0304163 0.0999584 0.0209801 0.0386141 0.0998962 
0.0166814 0.0405036 0.0948612 -0.0111759 0.0426216 0.0866784 0.00662382 0.0464545 0.0961221 
0.00458591 -0.039544 0.0866708 0.0304699 -0.0380375 0.102927 0.00950334 -0.0346704 0.0831916 
0.0120073 -0.0233996 0.0992673 -0.0147226 -0.019881 0.0846498 0.0336244 -0.0185083 0.0996555 
-0.0314694 -0.0134405 0.100086 -0.00827141 -0.0127553 0.100147 -0.00776544 0.0181428 0.0891061 
0.0029013 0.0422874 0.0861635 -0.0273013 0.0141419 0.0863946 0.0100235 -0.0296563 0.0929886 
-0.00888824 0.0379912 0.0919593 -0.0109201 0.0432795 0.0937822 -0.0394632 -0.0190635 0.0964211 
-0.0471085 -0.00828537 0.111438 -0.0393183 0.00623233 0.109516 -0.00312493 0.00839474 0.0974882 
-0.0452573 0.0128025 0.103578 0.0209872 0.0396857 0.104848 -0.0345058 -0.0315335 0.116828 
0.0399749 0.00438302 0.101181 0.006248 0.0315313 0.0992251 -0.0186712 0.0434213 0.110729 
-0.0144198 0.0457753 0.116416 -0.00451598 0.0450066 0.107782 -0.0227629 0.0205469 0.102055 
-0.0158798 -0.039925 0.106428 -0.0224629 -0.0228677 0.109009 0.039025 0.0219134 0.107001 
0.00428293 0.0394302 0.116967 0.0028041 -0.024122 0.11254 -0.0101005 -0.0213979 0.110679 
-0.0404577 0.00894972 0.122973 0.0227435 0.0273845 0.118864 -0.00871628 0.0132209 0.125433 
-0.0379268 -0.016612 0.118413 -0.00552842 0.0269783 0.119153 -0.0036853 -0.0168807 0.12165 
-0.0254114 -0.012937 0.136647 -0.00658024 -0.00155355 0.120788 0.0429062 0.0132509 0.129871 
0.0153275 -0.0422684 0.126611 0.0196135 -0.0436995 0.130108 0.0122082 -0.0295271 0.124582 
-0.0451096 0.00260237 0.126945 0.0383794 0.00255695 0.124164 0.0350186 0.0220146 0.126477 
-0.0169694 -0.0346002 0.129073 -0.00621226 -0.0262392 0.129582 -0.0363695 0.00287048 0.132368 
-0.0313442 0.00965657 0.133613 0.0178262 -0.0278702 0.139192 0.0305603 -0.0278924 0.143905 
-0.0171641 -0.0262288 0.131327 -0.0408188 0.0054923 0.135234 0.0178169 0.0333268 0.131991 
0.0374607 0.0145023 0.135321 -0.00179404 0.0285702 0.13622 0.0131215 -0.0390907 0.151108 
0.0239905 0.0252732 0.140439 0.00405577 0.0277489 0.139814 -0.0155922 -0.0205517 0.142886 
-0.0330728 -0.00347542 0.145841 0.0201345 -0.0400988 0.147086 -0.0242571 -0.0358575 0.149629 
-0.00915612 -0.00451394 0.146406 0.0413371 0.0140085 0.159764 -0.00809063 0.0236033 0.148914 
0.0234305 -0.0380544 0.161385 -0.0121616 -0.0293588 0.160179 -0.0145034 -0.0353813 0.163908 
0.0357889 -0.0195 0.153953 -0.0344664 -0.00949446 0.156675 0.0182934 0.0372464 0.164183 
-0.00120813 -0.0332152 0.159716 -0.0343063 0.00158511 0.158565 -0.0337793 0.0179355 0.160283 
0.0381509 0.0211975 0.159765 0.000701606 -0.0417813 0.16807 -0.0316805 0.00495722 0.165925 
0.0225462 0.0261161 0.165247 -0.0109012 -0.00443881 0.171861 0.0318289 0.0155926 0.171043 
0.0199265 -0.0375448 0.174062 0.0340005 -0.0274077 0.174537 -0.00389534 0.0123193 0.175785 
0.0127878 -0.0291644 0.179315 0.00210516 -0.026318 0.188077 -0.00046866 0.00191015 0.176037 
0.0385264 0.0226968 0.186852 -0.0383407 -0.0232859 0.182426 -0.00856099 -0.00484232 0.189467 
-0.00141093 0.0306477 0.191787 0.0156754 0.03135 0.192946 0.0203529 -0.0244045 0.19292 
0.0437042 -0.0114276 0.194019 0.0344887 0.0229983 0.186165 -0.0150722 0.0359996 0.184957 
-0.0122128 0.0410633 0.18696 -0.00585506 0.0443711 0.186104 0.0254207 -0.0360626 0.188043 
0.0198366 -0.0307221 0.187431 0.0364039 0.00934801 0.190832 -0.00668483 0.0382707 0.189541 
-0.0165751 -0.038712 0.192638 0.0309081 -0.0170784 0.203086 0.030843 0.00317636 0.207908 
0.0358896 0.00929616 0.196151 -0.0264114 0.0118903 0.19124 -0.011216 0.0263764 0.192558 
0.00230119 -0.0336949 0.196582 -0.00648554 -0.0313558 0.198501 -0.0117149 0.000627214 0.195237 
-0.00648953 -0.0220096 0.198688 0.028505 0.00767642 0.205318 0.000838145 0.0199605 0.202037 
-0.00446411 0.0246416 0.202906 0.0191889 0.0325979 0.204535 -0.00181526 0.0444847 0.203067 
-0.0357417 -0.021022 0.207142 -0.0249415 -0.017717 0.208583 -0.010498 -0.00824865 0.206605 
-0.00665319 0.00840212 0.207696 0.000509045 0.0395286 0.206736 -0.0190837 -0.0385507 0.213132 
-0.0176693 -0.0113834 0.212913 0.0357618 0.0228648 0.210082 0.0158662 -0.00182916 0.215763 
-0.027432 0.00322227 0.216309 0.0426879 0.0134877 0.21738 -0.0274258 -0.0349825 0.221035 
-0.017574 -0.0132037 0.219579 -0.012655 -0.0121901 0.220476 -0.00154237 -0.00647016 0.220481 
-0.0424457 -0.000150892 0.2189 0.0136003 -0.0252707 0.223445 0.0298504 -0.0251655 0.224407 
-0.0294183 -0.0211963 0.223434 -0.0213877 -0.0226463 0.224724 0.0245545 -0.014235 0.22364 
-0.0116067 0.0342706 0.22419 -0.021474 -0.0368448 0.226808 0.000861536 -0.00913537 0.228811 
-0.0194592 0.0233388 0.227604 -0.000740023 -0.0360659 0.229602 -0.0314586 -0.0131475 0.231958 
0.0207493 0.0245578 0.232458 0.00275579 -0.0260837 0.235132 0.0402762 -0.0163751 0.234967 
0.0143124 -0.0130284 0.236039 -0.0428708 -0.011805 0.235938 0.0246282 0.0162154 0.236261 
-0.0104751 0.0201344 0.235447 -0.0120979 -0.0281602 0.237663 -0.0123717 -0.0198646 0.238185 
0.0425117 -0.0144958 0.237769 -0.0262528 0.0167369 0.239211 -0.00997197 0.0302713 0.236679 
0.0141318 -0.0363161 0.243482 -0.0324409 -0.00912026 0.24369 -0.0193866 -0.0345939 0.245682 
0.0114178 -0.033482 0.244965 -0.0325525 -0.0276598 0.247443 0.0413691 -0.00199891 0.244318 
-0.0104894 0.0181699 0.246879 0.00543924 -0.0314838 0.251237 -0.0332879 -0.0233031 0.248743 
0.0131963 0.0147036 0.248183 0.0165558 0.0211279 0.250545 -0.0246293 0.0182181 0.253366 

VERTICES 306 612
1 0 
1 1 
1 2 
1 3 
1 4 
1 5 
1 6 
1 7 
1 8 
1 9 
1 10 
1 11 
1 12 
1 13 
1 14 
1 15 
1 16 
1 17 
1 18 
1 19 
1 20 
1 21 
1 22 
1 23 
1 24 
1 25 
1 26 
1 27 
1 28 
1 29 
1 30 
1 31 
1 32 
1 33 
1 34 
1 35 
1 36 
1 37 
1 38 
1 39 
1 40 
1 41 
1 42 
1 43 
1 44 
1 45 
1 46 
1 47 
1 48 
1 49 
1 50 
1 51 
1 52 
1 53 
1 54 
1 55 
1 56 
1 57 
1 58 
1 59 
1 60 
1 61 
1 62 
1 63 
1 64 
1 65 
1 66 
1 67 
1 68 
1 69 
1 70 
1 71 
1 72 
1 73 
1 74 
1 75 
1 76 
1 77 
1 78 
1 79 
1 80 
1 81 
1 82 
1 83 
1 84 
1 85 
1 86 
1 87 
1 88 
1 89 
1 90 
1 91 
1 92 
1 93 
1 94 
1 95 
1 96 
1 97 
1 98 
1 99 
1 100 
1 101 
1 102 
1 103 
1 104 
1 105 
1 106 
1 107 
1 108 
1 109 
1 110 
1 111 
1 112 
1 113 
1 114 
1 115 
1 116 
1 117 
1 118 
1 119 
1 120 
1 121 
1 122 
1 123 
1 124 
1 125 
1 126 
1 127 
1 128 
1 129 
1 130 
1 131 
1 132 
1 133 
1 134 
1 135 
1 136 
1 137 
1 138 
1 139 
1 140 
1 141 
1 142 
1 143 
1 144 
1 145 
1 146 
1 147 
1 148 
1 149 
1 150 
1 151 
1 152 
1 153 
1 154 
1 155 
1 156 
1 157 
1 158 
1 159 
1 160 
1 161 
1 162 
1 163 
1 164 
1 165 
1 166 
1 167 
1 168 
1 169 
1 170 
1 171 
1 172 
1 173 
1 174 
1 175 
1 176 
1 177 
1 178 
1 179 
1 180 
1 181 
1 182 
1 183 
1 184 
1 185 
1 186 
1 187 
1 188 
1 189 
1 190 
1 191 
1 192 
1 193 
1 194 
1 195 
1 196 
1 197 
1 198 
1 199 
1 200 
1 201 
1 202 
1 203 
1 204 
1 205 
1 206 
1 207 
1 208 
1 209 
1 210 
1 211 
1 212 
1 213 
1 214 
1 215 
1 216 
1 217 
1 218 
1 219 
1 220 
1 221 
1 222 
1 223 
1 224 
1 225 
1 226 
1 227 
1 228 
1 229 
1 230 
1 231 
1 232 
1 233 
1 234 
1 235 
1 236 
1 237 
1 238 
1 239 
1 240 
1 241 
1 242 
1 243 
1 244 
1 245 
1 246 
1 247 
1 248 
1 249 
1 250 
1 251 
1 252 
1 253 
1 254 
1 255 
1 256 
1 257 
1 258 
1 259 
1 260 
1 261 
1 262 
1 263 
1 264 
1 265 
1 266 
1 267 
1 268 
1 269 
1 270 
1 271 
1 272 
1 273 
1 274 
1 275 
1 276 
1 277 
1 278 
1 279 
1 280 
1 281 
1 282 
1 283 
1 284 
1 285 
1 286 
1 287 
1 288 
1 289 
1 290 
1 291 
1 292 
1 293 
1 294 
1 295 
1 296 
1 297 
1 298 
1 299 
1 300 
1 301 
1 302 
1 303 
1 304 
1 305 

POINT_DATA 306
FIELD FieldData 7
id 1 306 int
18 94 58 48 59 45 70 69 15 
53 36 22 82 1 57 20 40 150 
154 3 26 41 85 121 127 47 135 
123 56 44 137 21 119 92 62 149 
30 72 38 148 55 122 49 14 28 
146 125 112 107 5 71 155 143 29 
131 118 60 31 52 16 90 2 80 
77 93 138 35 32 134 12 13 9 
108 54 153 111 130 141 8 101 37 
25 83 152 147 11 24 6 4 163 
128 43 144 65 10 61 17 23 142 
51 19 110 39 33 86 115 145 160 
158 120 42 117 106 68 78 34 81 
96 87 46 100 50 113 98 164 64 
95 89 102 73 103 99 27 66 7 
67 63 166 76 161 74 88 84 167 
136 159 173 177 170 178 168 126 175 
79 129 132 179 181 133 116 104 176 
171 191 186 97 182 189 105 91 194 
183 190 193 169 188 75 207 187 184 
185 192 201 199 204 156 139 109 140 
202 197 198 205 196 124 200 206 195 
218 208 211 214 174 212 157 180 151 
216 215 114 213 209 210 219 220 225 
226 222 227 228 221 224 237 172 230 
162 233 165 217 231 239 229 234 235 
243 244 238 240 241 242 253 203 223 
255 236 232 252 250 247 249 256 254 
245 246 251 259 264 263 257 248 262 
266 265 258 268 267 269 260 275 280 
261 272 279 274 271 277 281 278 276 
270 273 286 282 293 289 291 294 284 
292 290 287 288 283 285 303 304 299 
300 297 305 298 296 306 302 301 295 

type 1 306 int
1 1 1 1 1 1 1 1 1 
1 1 1 1 1 1 1 1 1 
1 1 1 1 1 1 1 1 1 
1 1 1 1 1 1 1 1 1 
1 1 1 1 1 1 1 1 1 
1 1 1 1 1 1 1 1 1 
1 1 1 1 1 1 1 1 1 
1 1 1 1 1 1 1 1 1 
1 1 1 1 1 1 1 1 1 
1 1 1 1 1 1 1 1 1 
1 1 1 1 1 1 1 1 1 
1 1 1 1 1 1 1 1 1 
1 1 1 1 1 1 1 1 1 
1 1 1 1 1 1 1 1 1 
1 1 1 1 1 1 1 1 1 
1 1 1 1 1 1 1 1 1 
1 1 1 1 1 1 1 1 1 
1 1 1 1 1 1 1 1 1 
1 1 1 1 1 1 1 1 1 
1 1 1 1 1 1 1 1 1 
1 1 1 1 1 1 1 1 1 
1 1 1 1 1 1 1 1 1 
1 1 1 1 1 1 1 1 1 
1 1 1 1 1 1 1 1 1 
1 1 1 1 1 1 1 1 1 
1 1 1 1 1 1 1 1 1 
1 1 1 1 1 1 1 1 1 
1 1 1 1 1 1 1 1 1 
1 1 1 1 1 1 1 1 1 
1 1 1 1 1 1 1 1 1 
1 1 1 1 1 1 1 1 1 
1 1 1 1 1 1 1 1 1 
1 1 1 1 1 1 1 1 1 
1 1 1 1 1 1 1 1 1 

i 3 306 int
0 0 0 0 0 0 0 0 0 
0 0 0 0 0 0 0 0 0 
0 0 0 0 0 0 0 0 0 
0 0 0 0 0 0 0 0 0 
0 0 0 0 0 0 0 0 0 
0 0 0 0 0 0 0 0 0 
0 0 0 0 0 0 0 0 0 
0 0 0 0 0 0 0 0 0 
0 0 0 0 0 0 0 0 0 
0 0 0 0 0 0 0 0 0 
0 0 0 0 0 0 0 0 0 
0 0 0 0 0 0 0 0 0 
0 0 0 0 0 0 0 0 0 
0 0 0 0 0 0 0 0 0 
0 0 0 0 0 0 0 0 0 
0 0 0 0 0 0 0 0 0 
0 0 0 0 0 0 0 0 0 
0 0 0 0 0 0 0 0 0 
0 0 0 0 0 0 0 0 0 
0 0 0 0 0 0 0 0 0 
0 0 0 0 0 0 0 0 0 
0 0 0 0 0 0 0 0 0 
0 0 0 0 0 0 0 0 0 
0 0 0 0 0 0 0 0 0 
0 0 0 0 0 0 0 0 0 
0 0 0 0 0 0 0 0 0 
0 0 0 0 0 0 0 0 0 
0 0 0 0 0 0 0 0 0 
0 0 0 0 0 0 0 0 0 
0 0 0 0 0 0 0 0 0 
0 0 0 0 0 0 0 0 0 
0 0 0 0 0 0 0 0 0 
0 0 0 0 0 0 0 0 0 
0 0 0 0 0 0 0 0 0 
0 0 0 0 0 0 0 0 0 
0 0 0 0 0 0 0 0 0 
0 0 0 0 0 0 0 0 0 
0 0 0 0 0 0 0 0 0 
0 0 0 0 0 0 0 0 0 
0 0 0 0 0 0 0 0 0 
0 0 0 0 0 0 0 0 0 
0 0 0 0 0 0 0 0 0 
0 0 0 0 0 0 0 0 0 
0 0 0 0 0 0 0 0 0 
0 0 0 0 0 0 0 0 0 
0 0 0 0 0 0 0 0 0 
0 0 0 0 0 0 0 0 0 
0 0 0 0 0 0 0 0 0 
0 0 0 0 0 0 0 0 0 
0 0 0 0 0 0 0 0 0 
0 0 0 0 0 0 0 0 0 
0 0 0 0 0 0 0 0 0 
0 0 0 0 0 0 0 0 0 
0 0 0 0 0 0 0 0 0 
0 0 0 0 0 0 0 0 0 
0 0 0 0 0 0 0 0 0 
0 0 0 0 0 0 0 0 0 
0 0 0 0 0 0 0 0 0 
0 0 0 0 0 0 0 0 0 
0 0 0 0 0 0 0 0 0 
0 0 0 0 0 0 0 0 0 
0 0 0 0 0 0 0 0 0 
0 0 0 0 0 0 0 0 0 
0 0 0 0 0 0 0 0 0 
0 0 0 0 0 0 0 0 0 
0 0 0 0 0 0 0 0 0 
0 0 0 0 0 0 0 0 0 
0 0 0 0 0 0 0 0 0 
0 0 0 0 0 0 0 0 0 
0 0 0 0 0 0 0 0 0 
0 0 0 0 0 0 0 0 0 
0 0 0 0 0 0 0 0 0 
0 0 0 0 0 0 0 0 0 
0 0 0 0 0 0 0 0 0 
0 0 0 0 0 0 0 0 0 
0 0 0 0 0 0 0 0 0 
0 0 0 0 0 0 0 0 0 
0 0 0 0 0 0 0 0 0 
0 0 0 0 0 0 0 0 0 
0 0 0 0 0 0 0 0 0 
0 0 0 0 0 0 0 0 0 
0 0 0 0 0 0 0 0 0 
0 0 0 0 0 0 0 0 0 
0 0 0 0 0 0 0 0 0 
0 0 0 0 0 0 0 0 0 
0 0 0 0 0 0 0 0 0 
0 0 0 0 0 0 0 0 0 
0 0 0 0 0 0 0 0 0 
0 0 0 0 0 0 0 0 0 
0 0 0 0 0 0 0 0 0 
0 0 0 0 0 0 0 0 0 
0 0 0 0 0 0 0 0 0 
0 0 0 0 0 0 0 0 0 
0 0 0 0 0 0 0 0 0 
0 0 0 0 0 0 0 0 0 
0 0 0 0 0 0 0 0 0 
0 0 0 0 0 0 0 0 0 
0 0 0 0 0 0 0 0 0 
0 0 0 0 0 0 0 0 0 
0 0 0 0 0 0 0 0 0 
0 0 0 0 0 0 0 0 0 
0 0 0 0 0 0 0 0 0 

v 3 306 double
-0.0264322 0.075529 -0.0652554 0.132569 0.11558 0.000994579 -0.190861 -0.263185 -5.91624e-13 
0.286326 -0.125434 0.187342 -0.0214782 -0.138502 2.30117e-13 -0.198838 0.165289 0.036352 
0.0374105 -0.123143 -2.74607e-11 -0.170555 -0.0422349 0.306721 0.20184 -0.0897827 0.231176 
-0.137921 0.0722564 0.000838778 -0.152166 0.13013 -2.27263e-14 -0.0401753 -0.037397 -0.132965 
0.0308077 -0.0913059 -5.23017e-08 0.0205317 -0.157097 0.00056741 -0.0481367 -0.069107 1.03697e-13 
-0.10798 -0.045251 1.61652e-05 -0.0235309 -0.0554672 -0.0260188 -0.198998 0.0403516 0.193327 
-0.460138 -0.880274 0.169891 0.00396184 -0.153981 -3.4925e-07 -0.157968 0.117642 -0.0639939 
-0.134845 0.0356244 -2.91683e-05 -0.204543 -0.160457 0.0115816 -0.15488 0.274979 0.118818 
0.0910615 0.218042 -0.0466289 -0.00124636 -0.100876 -0.0760728 0.00503278 0.401712 0.0660727 
-0.132144 0.285263 -6.15049e-05 -0.025729 0.149913 0.00100989 0.230451 0.00510078 -0.0331964 
-0.188623 0.0131908 0.40002 -0.0917743 0.278458 0.0141202 -0.375059 -0.0164034 0.0428189 
0.23496 -0.0303925 -0.0230266 0.181401 0.189495 -0.225174 -0.394101 0.317989 -0.913391 
0.0196396 0.0559116 -0.0105905 0.35242 -0.0730856 -0.0404338 -0.1588 -0.329793 0.309177 
0.139395 0.440889 0.313281 -0.0190051 -0.174822 -0.00362619 0.215899 -0.105222 -0.0215043 
0.158191 -0.159087 -0.0120273 0.116056 -0.0349755 -0.113936 0.00347684 0.0364599 -0.0572218 
-0.335444 0.0747801 0.216146 -0.381189 -0.0567874 -0.134647 0.211247 -0.305045 -0.4942 
0.107363 0.0503181 0.0412543 0.0153293 0.010283 0.00352019 -0.0137782 -0.00129348 0.151523 
0 0 0.468784 -0.0243284 0.0602829 0.516993 -0.0109748 -0.0561644 -0.134071 
-0.0216916 -0.187461 0.356584 -0.180401 -0.0635679 -0.0192695 0.131847 -0.20718 -0.162525 
-0.00605912 0.0506188 0.137284 0.0290045 0.0343253 -0.0614255 0.139312 -0.0894597 -0.0994336 
0.189573 0.191095 -0.136757 0 0 0.181036 -0.0506846 0.166657 -0.0314258 
-0.225941 -0.116103 -0.504837 0.386957 0.0341574 -0.240818 0.136767 0.584182 -0.618312 
0.358842 0.53995 -0.420913 0.258176 0.0676147 0.130914 -0.0118999 -0.461671 -0.249602 
0.204633 0.0526505 -0.55848 -0.0497659 0.0488521 0.197496 -0.076391 0.248362 -0.0844829 
0.227779 0.292222 0.310172 -0.0518211 -0.144733 -0.0755689 0.1395 -0.157546 0.0523383 
-0.174932 -0.222418 -0.0449266 0.00836415 -0.0207253 0.377486 0 0 0.425697 
0 0 -0.591822 0.4668 0.147186 -0.569313 0.13088 0.233747 0.231233 
-0.108121 -0.142468 -0.21558 0.197047 -0.191923 -0.300484 -0.324793 -0.362857 -0.92249 
-0.49486 -0.0797292 0.439406 -0.0290348 0.0341657 -0.122355 0 0 -0.525731 
-0.234258 0.0927048 0.269823 0.0167785 -0.023369 -0.494956 0 0 0.564673 
0 0 0.341178 -0.112138 -0.110123 0.351574 -0.207521 0.40534 0.348556 
0.0146664 -0.246515 -0.232563 0.0620096 -0.259189 -0.408048 0.0433509 -0.197543 -0.144311 
-0.252501 0.0483464 -0.32562 0 0 -0.496539 0 0 0.359104 
-0.100178 0.0778283 -0.119466 0 0 -0.458014 -0.0339 0.108677 -0.143082 
0 0 -0.37512 0 0 -0.391204 -0.0761073 0.00691068 -1.40925 
0 0 0.24089 -0.0979297 0.259267 -1.0037 0 0 0.586484 
0 0 0.586613 -0.206555 0.0460899 0.0790677 0.0723791 0.0587575 -0.498991 
0 0 0.268905 0.0443562 -0.175106 -0.0050733 -0.0787882 -0.0589741 -0.164905 
0.0370144 -0.161992 0.0572135 0 0 -0.369618 0.317684 -0.0400496 -0.0469289 
0 0 0.0700698 0 0 0.024055 0 0 -0.30077 
0 0 0.0773993 -0.00242069 -0.067788 -0.293084 0 0 0.157748 
0 0 0.144503 -0.136767 -0.584182 -1.10852 0 0 -0.211272 
0 0 0.089539 -0.0466183 0.113419 -0.058021 -0.512562 -0.263466 -0.525975 
-0.195648 0.0232166 -1.41131 0 0 0.0776029 0 0 0.0863071 
0 0 -0.360826 -0.0836734 -0.157836 -1.30665 0.117647 -0.0636146 -0.196997 
-0.256497 -0.00789195 -1.41026 0.0654727 0.256069 0.211241 0 0 -2.07366 
0 0 -0.14101 0.394101 -0.317989 -0.637047 0 0 -0.107963 
0 0 -0.0489262 0 0 -0.0499724 0.304718 0.249903 -0.0851958 
-0.235556 0.504536 -0.0574346 0 0 -2.05845 0 0 -2.02676 
0 0 -2.03177 0 0 -2.02294 0 0 -2.01009 
0.207333 -0.00506136 -0.497289 0.242856 0.0398524 -0.615893 0 0 -2.00489 
0.142741 0.0954511 -1.13561 -0.181331 -0.0176145 -1.30241 0.251011 -0.0333355 -0.421881 
0 0 -1.98674 0 0 -1.99635 0.0732552 0.625835 -0.802069 
0.262337 -0.0938283 -0.391112 -0.145438 -0.124764 -1.08766 0 0 -1.98242 
0 0 -1.96064 0 0 -1.9477 0 0 -1.9578 
-0.233988 -0.0877342 -1.10922 0 0 -1.92984 0 0 -1.93926 
-0.202151 0.107962 -0.633121 -0.203356 -0.000574337 -1.17198 0.480857 0.462204 -0.866935 
0 0 -1.89972 0 0 -1.8959 0 0 -1.88295 
-0.0584524 -0.340155 -0.348473 0 0 -1.88746 -0.0884116 0.010815 -1.08819 
0 0 -1.85695 -0.0814917 -0.206775 -1.59296 0 0 -1.86765 
-0.194192 -0.0319141 -1.78765 0 0 -1.8698 0 0 -1.85764 
0 0 -1.84391 0 0 -1.84116 -0.503952 0.0366651 -1.0855 
0.197847 0.203637 -1.47241 -0.159078 0.255691 -1.2228 -0.210456 -0.0376268 -0.920722 
0 0 -1.83184 -0.411589 0.105549 -1.52119 0 0 -1.82831 
0 0 -1.81036 0 0 -1.80545 -0.231475 0.0611288 -0.847476 
0 0 -1.7824 0 0 -1.78583 0 0 -1.76886 
0 0 -1.75238 0 0 -1.74541 -0.137216 -0.0662139 -1.70418 
0 0 -1.74924 -0.191606 0.0306842 -0.735119 0 0 -1.73511 
-0.243792 0.0211067 -0.667368 -0.374143 -0.356237 -1.00971 0.154288 -0.111742 -1.00542 
0 0 -1.70637 0 0 -1.69067 -0.228466 -0.0203282 -0.789427 
0 0 -1.67292 0 0 -1.67969 0 0 -1.66958 
0 0 -1.67262 0 0 -1.62318 0 0 -1.63613 
0 0 -1.64015 0 0 -1.60013 0 0 -1.60513 
0 0 -1.58659 0 0 -1.58365 0 0 -1.5759 
0 0 -1.55373 -0.196465 -0.321643 -0.616891 0 0 -1.57433 
0.0304269 -0.0274043 -0.6702 0 0 -1.53401 -0.317545 -0.0640633 -0.604392 
-0.388205 0.555999 -0.505942 -0.0972885 0.694467 -0.502704 0.00460322 -0.678804 -0.615247 
0.636957 -0.297878 -0.529417 -0.0451526 0.00674414 -1.47042 0 0 -1.51772 
0 0 -1.50468 0 0 -1.51027 0 0 -1.49761 
0 0 -1.50163 0 0 -1.47927 0 0 -1.4878 
0 0 -1.4672 0.162106 -0.280841 -0.31793 0.307594 0.0622247 -0.121563 
0.510911 0.255283 -0.688299 0 0 -1.47652 0 0 -1.46779 
0 0 -1.44062 0 0 -1.42747 0 0 -1.44974 
0 0 -1.4262 0.427123 0.328896 -0.0723845 0 0 -1.40295 
0 0 -1.39686 0 0 -1.38539 0 0 -1.39578 
0 0 -1.36684 0 0 -1.35645 0 0 -1.37067 
0 0 -1.36282 0 0 -1.36969 0 0 -1.32309 
0 0 -1.32476 0 0 -1.34556 0 0 -1.30347 
0 0 -1.29935 0 0 -1.29121 0 0 -1.26315 
0 0 -1.27443 0 0 -1.26747 0 0 -1.26747 
0 0 -1.27963 0 0 -1.24432 0 0 -1.23667 
0 0 -1.24442 0 0 -1.23421 0 0 -1.24275 
0 0 -1.23843 0 0 -1.21754 0 0 -1.20125 
0 0 -1.21106 0 0 -1.19478 0 0 -1.17526 
0 0 -1.17114 0 0 -1.14847 0 0 -1.14985 
0 0 -1.14072 0 0 -1.14161 0 0 -1.13876 
0 0 -1.14583 0 0 -1.1267 0 0 -1.12209 
0 0 -1.12572 0 0 -1.11306 0 0 -1.13523 
0 0 -1.0748 0 0 -1.07294 0 0 -1.05449 
0 0 -1.06117 0 0 -1.03801 0 0 -1.06715 
0 0 -1.04331 0 0 -1.00152 0 0 -1.02565 
0 0 -1.03095 0 0 -1.00829 0 -0 -1 

f 3 306 double
0 0 -0.000346714 1.98535e-06 1.73085e-06 -9.36151e-05 1.9857e-17 -5.38852e-17 0 
0 0 -0.000346714 1.94626e-18 2.856e-17 0 0 0 -0.000346714 
-4.82582e-15 1.58842e-14 -5.78095e-12 0 0 -0.000346714 0 0 -0.00160516 
-1.74873e-06 9.16994e-07 -0.000272112 -2.69423e-17 2.85456e-17 0 0 0 -0.000346714 
-6.56109e-12 1.94454e-11 -2.21007e-08 -7.09068e-05 -5.91871e-05 -0.000129569 6.88786e-18 -7.43178e-18 0 
-1.08001e-08 -4.52596e-09 -4.93681e-06 0 0 -0.00160516 -0.0273392 -0.0131975 -0.0605174 
0 0 -0.000346714 -1.68668e-11 6.55545e-10 -3.02308e-07 0 0 -0.000346714 
6.87472e-07 -3.2317e-07 -0.000102935 0 0 -0.000346714 0 0 -0.00160516 
0 0 -0.000346714 0 0 -0.000346714 0 0 -0.000346714 
4.96836e-08 -1.07257e-07 1.5953e-05 -1.41946e-07 8.26375e-07 -4.25352e-06 0 0 -0.000346714 
0 0 -0.000346714 0 0 -0.000346714 0 0 -0.00160516 
0 0 -0.00160516 0 0 -0.000346714 0 0 -0.000346714 
0 0 -0.00160516 0 0 -0.000346714 0 0 -0.000346714 
0 0 -0.000346714 0 0 -0.00160516 0 0 -0.000346714 
0 0 -0.000346714 0 0 -0.00160516 0 0 -0.00160516 
0 0 -0.00160516 0 0 -0.000346714 0 0 -0.000346714 
0 0 -0.00160516 0 0 -0.00160516 0 0 -0.000346714 
0 0 -0.000346714 0 0 -0.00160516 0 0 -0.00160516 
0 0 -0.00160516 0 0 -0.00160516 0 0 -0.000346714 
0.00188389 -2.98902e-05 -0.0158136 0.0460023 0.048622 -0.12069 0 0 -0.00160516 
0 0 -0.000346714 0 0 -0.0285101 0 0 -0.00160516 
0 0 -0.000346714 0 0 -0.00160516 0 0 -0.000346714 
0 0 -0.000346714 0 0 -0.000346714 0 0 -0.00160516 
0 0 -0.000346714 0 0 -0.000346714 0 0 -0.000346714 
0 0 -0.000346714 0 0 -0.00160516 0 0 -0.000346714 
0 0 -0.000346714 0 0 -0.00160516 0 0 -0.000346714 
0 0 -0.000346714 0 0 -0.000346714 0 0 -0.000346714 
0 0 -0.000346714 0 0 -0.000346714 0 0 -0.000346714 
0 0 -0.00160516 0 0 -0.000346714 0 0 -0.000346714 
0 0 -0.000346714 0 0 -0.00160516 0 0 -0.000346714 
0 0 -0.000346714 -0.0409713 -0.0402349 0.210722 0 0 -0.00160516 
0 0 -0.00160516 0 0 -0.000346714 0 0 -0.000346714 
0 0 -0.00160516 0 0 -0.000346714 0 0 -0.000346714 
0 0 -0.000346714 0 0 -0.000346714 0.0026028 -0.00382788 0.00255591 
0 0 -0.000346714 0 0 -0.000346714 0 0 -0.000346714 
0 0 -0.000346714 0 0 -0.00160516 0 0 -0.00160516 
0 0 -0.00160516 0 0 -0.00160516 0 0 -0.00160516 
0 0 -0.00160516 0 0 -0.00160516 0 0 -0.00160516 
0 0 -0.00160516 0 0 -0.000346714 0 0 -0.00160516 
0 0 -0.000346714 0 0 -0.000346714 0 0 -0.000346714 
0 0 -0.000346714 0 0 -0.000346714 0 0 -0.000346714 
0 0 -0.000346714 0 0 -0.000346714 0 0 -0.000346714 
0 0 -0.000346714 0 0 -0.000346714 0 0 -0.000346714 
0 0 -0.000346714 0 0 -0.000346714 0 0 -0.000346714 
0 0 -0.00160516 0 0 -0.00160516 0 0 -0.000346714 
0 0 -0.00160516 0 0 -0.000346714 0 0 -0.000346714 
0 0 -0.000346714 0 0 -0.000346714 0 0 -0.000346714 
0 0 -0.000346714 0 0 -0.000346714 0.0273392 0.0131975 0.059824 
-0.0460023 -0.048622 0.118739 0 0 -0.00160516 0 0 -0.000346714 
0 0 -0.000346714 0 0 -0.00160516 0 0 -0.000346714 
0 0 -0.000346714 0 0 -0.000346714 0 0 -0.000346714 
0 0 -0.00160516 0 0 -0.000346714 0 0 -0.00160516 
0 0 -0.000346714 0 0 -0.000346714 0 0 -0.00160516 
0 0 -0.000346714 0 0 -0.00160516 0 0 -0.000346714 
0 0 -0.00160516 0 0 -0.000346714 0 0 -0.000346714 
0 0 -0.000346714 0 0 -0.00160516 0 0 -0.000346714 
0 0 -0.00160516 0 0 -0.00160516 0 0 -0.000346714 
0 0 -0.00160516 0 0 -0.000346714 0 0 -0.000346714 
0 0 -0.00160516 0 0 -0.000346714 0 0 -0.000346714 
0 0 -0.000346714 0 0 -0.000346714 0 0 -0.00160516 
0 0 -0.00160516 0 0 -0.000346714 0 0 -0.000346714 
0 0 -0.000346714 0 0 -0.000346714 0 0 -0.00160516 
0 0 -0.000346714 0 0 -0.000346714 0 0 -0.000346714 
0 0 -0.000346714 0 0 -0.00160516 0 0 -0.00160516 
0 0 -0.000346714 0 0 -0.00160516 0 0 -0.000346714 
0 0 -0.000346714 0 0 -0.000346714 0 0 -0.00160516 
0 0 -0.000346714 0 0 -0.00160516 0 0 -0.00160516 
0 0 -0.000346714 0 0 -0.000346714 0 0 -0.000346714 
0 0 -0.00160516 0 0 -0.000346714 0 0 -0.000346714 
0 0 -0.000346714 0 0 -0.000346714 0 0 -0.000346714 
0 0 -0.000346714 0 0 -0.00160516 0 0 -0.00160516 
0 0 -0.000346714 0 0 -0.00160516 0 0 -0.000346714 
0 0 -0.000346714 0 0 -0.00160516 0 0 -0.000346714 
0 0 -0.000346714 0 0 -0.00160516 0 0 -0.000346714 
0 0 -0.000346714 0 0 -0.00160516 0 0 -0.000346714 
0 0 -0.000346714 0 0 -0.00160516 0 0 -0.000346714 
0 0 -0.000346714 0 0 -0.000346714 0 0 -0.000346714 
0 0 -0.000346714 0 0 -0.00160516 0 0 -0.00160516 
0 0 -0.000346714 0 0 -0.000346714 0 0 -0.000346714 
0 0 -0.000346714 0 0 -0.000346714 0 0 -0.000346714 
0 0 -0.000346714 0 0 -0.000346714 0 0 -0.00160516 
0 0 -0.000346714 0 0 -0.00160516 0 0 -0.00160516 
0 0 -0.000346714 0 0 -0.000346714 0 0 -0.00160516 
0 0 -0.000346714 0 0 -0.000346714 0 0 -0.000346714 
0 0 -0.00160516 0 0 -0.00160516 0 0 -0.000346714 
0 0 -0.00160516 0 0 -0.000346714 0 0 -0.000346714 
0 0 -0.00160516 0 0 -0.00160516 0 0 -0.000346714 
0 0 -0.000346714 0 0 -0.000346714 0 0 -0.00160516 
0 0 -0.000346714 0 0 -0.000346714 0 0 -0.00160516 
0 0 -0.00160516 0 0 -0.000346714 0 0 -0.000346714 
0 0 -0.000346714 0 0 -0.00160516 0 0 -0.000346714 
0 0 -0.000346714 0 0 -0.00160516 0 0 -0.000346714 
0 0 -0.000346714 0 0 -0.000346714 0 0 -0.000346714 
0 0 -0.00160516 0 0 -0.000346714 0 0 -0.000346714 
0 0 -0.00160516 0 0 -0.000346714 0 0 -0.000346714 
0 0 -0.000346714 0 0 -0.000346714 0 0 -0.00160516 
0 0 -0.000346714 0 0 -0.000346714 0 0 -0.000346714 
0 0 -0.000346714 0 0 -0.00160516 0 0 -0.00160516 
0 0 -0.000346714 0 0 -0.000346714 0 0 -0.000346714 
0 0 -0.000346714 0 0 -0.00160516 0 0 -0.000346714 
0 0 -0.00160516 0 0 -0.00160516 0 0 -0.000346714 
0 0 -0.000346714 0 0 -0.000346714 0 0 0 

radius 1 306 double
0.0015 0.0025 0.0015 0.0015 0.0015 0.0015 0.0015 0.0015 0.0025 
0.0025 0.0015 0.0015 0.0015 0.0025 0.0015 0.0015 0.0025 0.0015 
0.0015 0.0025 0.0015 0.0025 0.0015 0.0025 0.0015 0.0015 0.0015 
0.0015 0.0015 0.0015 0.0015 0.0015 0.0025 0.0025 0.0015 0.0015 
0.0025 0.0015 0.0015 0.0015 0.0025 0.0015 0.0015 0.0025 0.0025 
0.0025 0.0015 0.0015 0.0025 0.0025 0.0015 0.0015 0.0025 0.0025 
0.0025 0.0025 0.0015 0.0025 0.0025 0.0025 0.0015 0.0025 0.0025 
0.0015 0.0025 0.0015 0.0015 0.0015 0.0025 0.0015 0.0015 0.0015 
0.0015 0.0025 0.0015 0.0015 0.0025 0.0015 0.0015 0.0015 0.0015 
0.0015 0.0015 0.0015 0.0025 0.0015 0.0015 0.0015 0.0025 0.0015 
0.0015 0.0025 0.0025 0.0025 0.0015 0.0015 0.0025 0.0015 0.0015 
0.0015 0.0015 0.0015 0.0015 0.0015 0.0015 0.0015 0.0025 0.0025 
0.0025 0.0025 0.0025 0.0025 0.0025 0.0025 0.0025 0.0015 0.0025 
0.0015 0.0015 0.0015 0.0015 0.0015 0.0015 0.0015 0.0015 0.0015 
0.0015 0.0015 0.0015 0.0015 0.0015 0.0015 0.0025 0.0025 0.0015 
0.0025 0.0015 0.0015 0.0015 0.0015 0.0015 0.0015 0.0015 0.0015 
0.0015 0.0025 0.0015 0.0015 0.0025 0.0015 0.0015 0.0015 0.0015 
0.0025 0.0015 0.0025 0.0015 0.0015 0.0025 0.0015 0.0025 0.0015 
0.0025 0.0015 0.0015 0.0015 0.0025 0.0015 0.0025 0.0025 0.0015 
0.0025 0.0015 0.0015 0.0025 0.0015 0.0015 0.0015 0.0015 0.0025 
0.0025 0.0015 0.0015 0.0015 0.0015 0.0025 0.0015 0.0015 0.0015 
0.0015 0.0025 0.0025 0.0015 0.0025 0.0015 0.0015 0.0015 0.0025 
0.0015 0.0025 0.0025 0.0015 0.0015 0.0015 0.0025 0.0015 0.0015 
0.0015 0.0015 0.0015 0.0015 0.0025 0.0025 0.0015 0.0025 0.0015 
0.0015 0.0025 0.0015 0.0015 0.0025 0.0015 0.0015 0.0025 0.0015 
0.0015 0.0025 0.0015 0.0015 0.0015 0.0015 0.0015 0.0025 0.0025 
0.0015 0.0015 0.0015 0.0015 0.0015 0.0015 0.0015 0.0015 0.0025 
0.0015 0.0025 0.0025 0.0015 0.0015 0.0025 0.0015 0.0015 0.0015 
0.0025 0.0025 0.0015 0.0025 0.0015 0.0015 0.0025 0.0025 0.0015 
0.0015 0.0015 0.0025 0.0015 0.0015 0.0025 0.0025 0.0015 0.0015 
0.0015 0.0025 0.0015 0.0015 0.0025 0.0015 0.0015 0.0015 0.0015 
0.0025 0.0015 0.0015 0.0025 0.0015 0.0015 0.0015 0.0015 0.0025 
0.0015 0.0015 0.0015 0.0015 0.0025 0.0025 0.0015 0.0015 0.0015 
0.0015 0.0025 0.0015 0.0025 0.0025 0.0015 0.0015 0.0015 0.0025 

omega 3 306 double
66.9817 36.2 -4.24476 -46.2712 53.0725 6.11075 175.554 -127.311 48.9803 