# vtk DataFile Version 4.0
Generated by LIGGGHTS
ASCII
DATASET POLYDATA
POINTS 1277 float
-0.0122637 -0.0480584 0.0811205 -0.00881675 -0.0488924 0.0811173 -0.00583895 -0.0492679 0.0811167 
-0.00140454 -0.0497007 0.0811186 0.00233143 -0.0485784 0.0821188 0.00632444 -0.0492371 0.0811205 
0.00957417 -0.0485105 0.0811185 0.0125458 -0.0480366 0.0811205 -0.0220792 -0.0444595 0.0811191 
-0.0183177 -0.0461389 0.0811201 -0.0154738 -0.047177 0.0811175 -0.0156188 -0.044107 0.0811207 
-0.0127157 -0.0448525 0.0811199 -0.00998267 -0.0460853 0.081119 -0.00700817 -0.0464679 0.0811203 
-0.00394549 -0.0468416 0.0811205 -0.000953886 -0.0464793 0.0811205 0.00494416 -0.0457228 0.0811187 
0.0089819 -0.0454997 0.0811134 0.014783 -0.046038 0.0811202 0.0174389 -0.0446448 0.0811197 
0.0208886 -0.044388 0.0811198 -0.0249286 -0.041842 0.082119 -0.0209841 -0.041672 0.0811147 
-0.0183305 -0.0429497 0.0816569 -0.0116774 -0.0414872 0.0811144 -0.00790072 -0.0435868 0.0811182 
-0.00743071 -0.0406231 0.0811209 -0.00391551 -0.0436704 0.0811205 -0.00443079 -0.0406541 0.0811225 
-0.00146944 -0.041163 0.0811787 0.00162664 -0.0435028 0.0821195 0.00673657 -0.0406441 0.0821116 
0.0122018 -0.0431518 0.0821187 0.0167811 -0.0408305 0.0821188 0.0237874 -0.0436168 0.0811141 
0.0263458 -0.0420464 0.081116 0.0288778 -0.0404453 0.0811199 -0.0290551 -0.0390216 0.0821163 
-0.0237775 -0.0381452 0.0811197 -0.0198968 -0.0379617 0.0821238 -0.0154431 -0.0402253 0.0821177 
-0.0123618 -0.0376801 0.0822435 -0.00979594 -0.0387505 0.0811203 0.00125134 -0.0394128 0.0811205 
0.0124978 -0.0381613 0.0821181 0.0168129 -0.0369589 0.0811206 0.0217674 -0.0401493 0.0821729 
0.0255945 -0.0389533 0.081114 0.0311746 -0.0385149 0.0811205 -0.0365393 -0.0336408 0.0811172 
-0.0329001 -0.0358108 0.082115 -0.0283498 -0.0352108 0.0811205 -0.0253578 -0.035597 0.0811195 
-0.0223857 -0.034964 0.0811206 -0.0193042 -0.0335463 0.0811197 -0.015751 -0.0350688 0.0821159 
-0.0108837 -0.0339539 0.0821171 -0.00697491 -0.0351756 0.0811198 -0.00346665 -0.0368679 0.0821183 
0.00129135 -0.0352475 0.0821183 0.00689397 -0.0366581 0.0813661 0.0102915 -0.0336634 0.0821102 
0.0193777 -0.035407 0.0812007 0.0232445 -0.035063 0.0821624 0.028204 -0.0359507 0.0821173 
0.0317127 -0.0343031 0.0811207 0.0335674 -0.0366745 0.0811157 -0.0390232 -0.0307077 0.0811203 
-0.0303279 -0.0329202 0.0811159 -0.0322557 -0.0306276 0.0811173 -0.0267642 -0.0326582 0.0811205 
-0.0249831 -0.0302293 0.0811206 -0.0225364 -0.0319655 0.0811203 -0.0198286 -0.0303168 0.0811198 
-0.0169953 -0.031302 0.0811946 -0.0137949 -0.0308202 0.0811205 -0.0070115 -0.0321713 0.0811205 
-0.00302851 -0.0318811 0.0821104 0.00650863 -0.0304029 0.082147 0.0132092 -0.0310922 0.0811158 
0.0204955 -0.0313764 0.0812192 0.0235155 -0.0312183 0.0811156 0.0296411 -0.032067 0.0811192 
0.0322935 -0.0306764 0.0811183 0.0354499 -0.0332809 0.0821137 0.0386048 -0.0310394 0.081115 
-0.0408104 -0.0282719 0.0811205 -0.037728 -0.0279961 0.0811199 -0.0349072 -0.0290147 0.0811138 
-0.0329524 -0.0267062 0.0811205 -0.0286994 -0.0290959 0.0821168 -0.0252198 -0.0272393 0.0811207 
-0.022376 -0.0287255 0.0811206 -0.0182483 -0.0277718 0.0811207 -0.0144632 -0.0269666 0.0821188 
-0.0099153 -0.0290519 0.0821189 -0.00152187 -0.0278719 0.0811205 0.00148622 -0.0291867 0.0811772 
0.00370524 -0.0271229 0.0811759 0.0102773 -0.0295709 0.0811176 0.0123303 -0.0273889 0.0811184 
0.0157212 -0.0284209 0.0811168 0.0218628 -0.0277227 0.0821145 0.0260502 -0.0294499 0.0811146 
0.0290338 -0.0290695 0.0811205 0.0352361 -0.0282087 0.0822236 0.0385807 -0.0263116 0.081121 
0.040497 -0.0287121 0.0811214 -0.0424986 -0.0256814 0.0811201 -0.0394962 -0.0255726 0.0811203 
-0.0359894 -0.025547 0.0811205 -0.0321424 -0.0238117 0.0811201 -0.0295513 -0.0253209 0.0811197 
-0.0266425 -0.0245972 0.0811202 -0.0234776 -0.0247936 0.0811215 -0.0206689 -0.0259233 0.0811135 
-0.0174142 -0.0241688 0.0811321 -0.0130381 -0.0233664 0.0811184 -0.00937118 -0.0229716 0.0811254 
-0.00801683 -0.0256786 0.0811189 -0.00397203 -0.0240368 0.0811151 -0.00104516 -0.0249012 0.0811205 
0.00196589 -0.0246597 0.0811203 0.00527796 -0.0243174 0.0811205 0.010331 -0.0245663 0.0811205 
0.0129947 -0.0231662 0.0811164 0.014743 -0.0255935 0.0811246 0.0177787 -0.0261658 0.0811205 
0.0205197 -0.0238716 0.0811206 0.024363 -0.0234006 0.0821116 0.0270023 -0.0262539 0.0811204 
0.0307623 -0.0252941 0.0821183 0.0366992 -0.0235443 0.0811203 0.039721 -0.0235357 0.0811209 
0.0421763 -0.0262267 0.0811211 -0.0433982 -0.0218947 0.0821183 -0.0403266 -0.0195267 0.0811205 
-0.0395675 -0.0225742 0.0811198 -0.0352857 -0.0215453 0.0821126 -0.0314656 -0.0206676 0.0811205 
-0.0270579 -0.0207477 0.0821187 -0.0206306 -0.0219561 0.0821196 -0.0168319 -0.0212169 0.0811179 
-0.0139863 -0.0202692 0.0811505 -0.0111489 -0.0193013 0.0811312 -0.008049 -0.020274 0.0811262 
0.00104363 -0.0208966 0.0821133 0.00547226 -0.020729 0.0811205 0.00916472 -0.0216485 0.0811206 
0.0119462 -0.0203614 0.0811151 0.0161136 -0.0224959 0.0811205 0.0204521 -0.0199976 0.0821182 
0.0242973 -0.0195292 0.0811191 0.0281029 -0.022375 0.0811196 0.0274355 -0.0193245 0.0811206 
0.0308694 -0.0212181 0.0812136 0.0336677 -0.02256 0.0811474 0.0382148 -0.0209015 0.0811145 
0.0413041 -0.0208009 0.0811205 0.0447676 -0.0215493 0.0811156 -0.0460167 -0.01881 0.0811205 
-0.0469862 -0.0159297 0.0811201 -0.0439427 -0.0165929 0.0811205 -0.040926 -0.0165223 0.0811137 
-0.0370338 -0.0168314 0.0821033 -0.0316995 -0.0175662 0.0812354 -0.0287057 -0.0171966 0.0811197 
-0.023461 -0.0192919 0.0811204 -0.0253803 -0.0169635 0.0812292 -0.0206522 -0.0180351 0.0811205 
-0.0175594 -0.0182477 0.0811207 -0.0147528 -0.0171892 0.0811203 -0.0085566 -0.0164268 0.0821261 
-0.00369234 -0.0189859 0.0821186 -0.00110385 -0.0158898 0.0811205 0.00410547 -0.0180465 0.0811205 
0.00798115 -0.0177171 0.082113 0.0119277 -0.016999 0.0811221 0.0154335 -0.0186796 0.0821184 
0.0184858 -0.0163061 0.0811181 0.0257188 -0.0171536 0.0822718 0.0284093 -0.016485 0.0811201 
0.0312739 -0.0175951 0.0811205 0.0350189 -0.0186955 0.0820584 0.0397139 -0.0170229 0.0821116 
0.0436787 -0.0178595 0.0813486 -0.0433985 -0.0136281 0.0811205 -0.0330222 -0.0138502 0.0821168 
-0.0256996 -0.0139781 0.0811862 -0.0227979 -0.015117 0.0811188 -0.0189813 -0.0144795 0.08212 
-0.0123127 -0.0154309 0.0811206 -0.0149285 -0.0139544 0.0811205 -0.0104515 -0.013048 0.0811209 
-0.0064503 -0.0127162 0.0811717 -0.003243 -0.0126949 0.0811194 -0.00478148 -0.015146 0.0818829 
0.00250667 -0.0144562 0.0821171 0.00636978 -0.0140042 0.0811799 0.0093578 -0.0136778 0.0811146 
0.0134593 -0.0144212 0.0811194 0.0169552 -0.0127548 0.0821169 0.0220672 -0.0148446 0.0821203 
0.0260042 -0.0144001 0.0811186 0.0308773 -0.0135005 0.0821138 0.0358747 -0.0137326 0.0821184 
0.0426548 -0.0131712 0.0811205 0.0463513 -0.0146361 0.0821182 -0.0470102 -0.0120449 0.0821166 
-0.0433768 -0.0106191 0.0811198 -0.0390903 -0.0122047 0.0821168 -0.035397 -0.0106203 0.0821915 
-0.0322907 -0.00955529 0.0818404 -0.0286967 -0.0113343 0.0821183 -0.0232625 -0.0120108 0.0811206 
-0.0249481 -0.00950784 0.0811184 -0.0204772 -0.0108957 0.0811235 -0.0165847 -0.0114413 0.08112 
-0.0181839 -0.00879932 0.0811209 -0.0129727 -0.0111426 0.0811289 -0.0149819 -0.00890808 0.0811167 
-0.00985048 -0.010001 0.0812235 -0.00023861 -0.0102631 0.0821205 0.00360117 -0.0107445 0.0811192 
0.0074303 -0.0101757 0.0821175 0.0124003 -0.0106987 0.0821102 0.0158503 -0.00893623 0.0811195 
0.0210676 -0.00991723 0.0821173 0.0340746 -0.0100355 0.0811142 0.0370779 -0.00996054 0.0811212 
0.0394431 -0.0118593 0.0811204 0.0452868 -0.010872 0.0811205 0.0484196 -0.0109088 0.0811203 
-0.0488744 -0.00865315 0.081118 -0.0456917 -0.00838059 0.0811205 -0.0408355 -0.00742124 0.0821183 
-0.0367622 -0.00785697 0.0811205 -0.0337506 -0.00658216 0.0811205 -0.0303578 -0.00732631 0.0811202 
-0.0273364 -0.00769874 0.0811189 -0.0251718 -0.00526781 0.0811213 -0.0218056 -0.00725146 0.0821191 
-0.0164926 -0.00631854 0.0811196 -0.0136438 -0.00534982 0.0811205 -0.0121301 -0.00797011 0.0811199 
-0.00705884 -0.00869223 0.0812117 -0.00723958 -0.00567245 0.0811229 -0.00395928 -0.00812531 0.0811205 
0.00189174 -0.00703769 0.0811161 0.00465796 -0.00575011 0.0811194 0.00766693 -0.00589529 0.0811204 
0.0102439 -0.00748963 0.0811118 0.0134414 -0.00686748 0.0811205 0.0185568 -0.00696684 0.0811207 
0.0226269 -0.00635331 0.0811205 0.0264361 -0.0056243 0.0821165 0.0305062 -0.0085203 0.0821136 
0.0344397 -0.00545153 0.082114 0.0380046 -0.00707899 0.0811205 0.0417671 -0.00833436 0.0822251 
0.0460126 -0.00786957 0.0811205 0.0490327 -0.00778167 0.0811205 -0.0494768 -0.00392556 0.0811176 
-0.0448195 -0.00439789 0.0821201 -0.0391019 -0.00203986 0.0821169 -0.0362549 -0.00467714 0.0811205 
-0.0314955 -0.00455072 0.0811209 -0.0296475 -0.00218683 0.0811205 -0.0282987 -0.00486142 0.0811239 
-0.026347 -0.00251614 0.0811161 -0.0216985 -0.0033426 0.0811205 -0.0189606 -0.00462866 0.0810734 
-0.0158914 -0.00333423 0.0811205 -0.0125279 -0.00255856 0.0811206 -0.0105875 -0.005225 0.0811199 
-0.00832632 -0.00289789 0.0813249 -0.00471079 -0.00399683 0.0814182 0.00128209 -0.00260335 0.0811173 
0.00427938 -0.00262606 0.0811189 0.00810917 -0.00203732 0.0821183 0.0114149 -0.00463472 0.0811205 
0.0151552 -0.00430298 0.0811164 0.0173912 -0.00176761 0.0811181 0.0204983 -0.00423229 0.0811202 
0.0274308 -0.00182698 0.0811768 0.0305738 -0.00461446 0.0811199 0.0358453 -0.00183059 0.0810954 
0.0380675 -0.00407486 0.0811169 0.0409916 -0.00444649 0.0816338 0.0449655 -0.00413049 0.0821179 
0.0493753 -0.00478473 0.0811205 -0.0497093 -0.00040557 0.081119 -0.0467812 -0.00104657 0.0811198 
-0.0433053 0.000661133 0.0821157 -0.0367534 0.00103835 0.0811174 -0.0336575 -0.00129742 0.0821165 
-0.0303246 0.00073135 0.0811205 -0.0262356 0.000534838 0.081124 -0.0237057 -0.00110319 0.0811187 
-0.0193537 -0.000935469 0.0811205 -0.0149306 0.000500498 0.0821178 -0.0108366 0.00067801 0.0819774 
-0.00799114 6.76336e-05 0.0811147 -0.00328473 -0.00119362 0.0811205 0.000268737 0.00130161 0.0821115 
[...]
POINT_DATA 1277
FIELD FieldData 7
id 1 1277 int
207 96 228 273 172 50 19 151 199 
262 51 11 290 506 457 100 637 277 
187 239 161 279 2 164 595 137 48 
396 59 394 741 422 371 423 695 597 
390 18 297 213 269 412 853 113 675 
257 426 499 854 90 180 211 34 21 
193 416 119 171 178 708 459 492 590 
203 208 184 409 545 77 293 736 496 
58 661 329 191 582 44 721 564 46 
166 97 600 790 719 216 88 304 583 
168 527 562 352 548 362 345 619 87 
1058 495 510 969 618 916 491 319 110 
289 568 38 740 433 6 24 381 846 
342 351 870 750 407 192 480 685 634 
549 303 670 523 449 529 92 621 72 
74 298 408 428 460 522 185 94 338 
421 515 252 485 557 378 702 364 332 
300 645 594 802 63 366 709 175 176 
274 519 606 134 584 1015 868 261 830 
287 842 384 169 547 541 310 620 43 
98 493 444 554 473 222 140 149 425 
62 173 272 542 76 431 138 531 636 
435 102 478 367 476 462 69 80 630 
128 221 259 464 4 306 266 539 153 
49 165 275 39 331 286 32 486 580 
28 372 95 131 227 86 662 318 267 
294 382 183 613 383 521 125 218 15 
70 45 753 699 141 250 124 204 249 
665 845 64 237 93 14 334 406 160 
10 238 520 156 209 509 544 441 561 
253 9 154 33 263 280 370 12 688 
375 106 84 241 353 35 556 202 205 
109 13 130 82 85 354 79 217 197 
36 291 481 356 146 622 292 264 55 
276 104 155 122 245 224 337 159 363 
593 162 255 442 157 1 215 357 126 
317 57 89 111 22 53 439 212 40 
775 453 3 229 244 336 112 179 265 
256 490 350 698 429 312 144 268 314 
20 502 347 543 447 115 285 436 711 
254 427 573 270 129 326 158 23 399 
749 467 143 320 446 322 311 117 235 
385 150 649 528 330 339 599 284 555 
505 494 374 75 167 305 288 373 105 
61 574 456 8 569 451 71 295 380 
654 768 767 535 500 558 722 324 581 
530 615 810 369 368 389 404 83 365 
5 651 633 415 804 349 225 671 788 
893 601 488 536 635 570 301 585 706 
219 707 653 145 29 470 879 712 627 
108 726 513 782 658 625 468 484 567 
393 401 728 234 174 359 327 41 25 
466 701 118 801 885 360 533 189 147 
487 465 643 181 587 188 443 420 856 
639 37 283 200 201 47 17 214 376 
891 190 729 717 571 524 803 313 91 
395 73 761 139 923 103 518 42 403 
391 714 417 455 177 514 231 686 623 
361 31 471 282 315 101 226 148 68 
335 302 754 483 501 307 445 598 206 
223 632 26 194 142 78 477 195 325 
281 534 379 668 866 760 730 440 482 
198 503 99 236 432 611 170 196 474 
461 904 869 684 16 572 135 123 251 
242 309 114 60 683 52 344 546 81 
328 136 152 56 414 243 7 402 186 
507 743 479 739 763 862 608 825 614 
758 824 877 646 831 624 358 607 800 
876 642 1032 596 498 1046 1035 278 182 
592 961 903 690 538 946 1009 1092 1055 
576 811 677 672 805 786 816 1103 991 
889 667 1029 398 951 454 1021 723 553 
258 1061 778 603 759 704 972 966 738 
908 858 971 550 834 943 1033 752 1074 
970 998 958 240 271 930 1004 511 1019 
977 826 566 1118 526 806 984 628 377 
733 848 1105 1062 720 489 787 766 296 
785 897 694 982 419 66 626 905 909 
981 883 772 780 617 299 127 693 849 
1023 648 260 659 911 563 844 609 724 
666 779 517 774 827 713 230 967 602 
588 742 512 878 829 915 725 655 747 
233 660 400 67 30 888 678 638 715 
703 859 940 919 734 815 579 1093 918 
833 841 817 163 988 232 589 839 863 
650 463 343 497 452 755 727 133 776 
956 818 836 591 697 321 316 934 896 
851 770 551 392 1007 921 410 765 54 
525 647 993 872 769 819 664 397 1082 
746 812 559 610 843 867 994 323 341 
942 120 990 865 955 823 979 1079 793 
418 887 413 1016 689 560 926 644 953 
731 949 691 906 1104 855 437 430 902 
813 954 792 756 907 475 789 1095 781 
840 508 680 629 735 764 532 405 679 
901 308 716 696 1075 886 210 794 852 
832 796 945 1030 1080 687 674 676 333 
552 388 612 771 355 933 892 472 586 
745 777 469 121 1039 1068 604 880 450 
27 835 681 807 920 652 791 828 605 
762 640 448 340 458 673 424 978 516 
537 898 578 248 656 751 799 850 895 
798 1043 968 948 575 784 935 682 947 
220 1010 820 997 718 917 1123 875 438 
1109 1011 960 983 1014 757 1038 565 1048 
985 1102 1013 912 1025 925 1050 989 881 
1107 884 944 999 1081 910 874 346 1066 
838 1122 1034 1124 1106 1091 744 795 894 
1006 657 504 1073 927 900 1047 773 107 
132 732 899 995 936 924 411 348 631 
748 821 882 1072 1051 809 116 913 247 
1002 641 616 783 737 937 929 1008 931 
1094 964 710 996 246 939 837 871 959 
860 847 941 814 864 1053 669 705 434 
890 1067 963 1026 822 386 1036 1129 1121 
1022 1049 857 975 1136 387 938 1000 973 
797 932 700 808 692 922 663 962 976 
965 986 1001 1012 1063 987 1134 952 1133 
1111 1132 928 1020 1097 1052 65 873 1101 
861 1085 1017 1078 1100 1031 914 1120 1042 
1090 1113 1045 577 1076 1114 540 974 1110 
1040 1086 1024 1115 1070 1119 1005 1117 1054 
1044 980 1065 1056 1088 1108 1028 957 992 
1131 950 1060 1059 1135 1064 1018 1003 1125 
1084 1145 1127 1128 1148 1138 1137 1041 1149 
1139 1099 1069 1147 1141 1037 1057 1140 1162 
1155 1160 1153 1152 1161 1150 1157 1142 1126 
1083 1156 1159 1071 1175 1168 1143 1169 1174 
1164 1170 1144 1077 1166 1163 1165 1130 1027 
1173 1167 1171 1172 1087 1176 1089 1096 1183 
1151 1181 1187 1179 1154 1178 1185 1098 1177 
1184 1180 1146 1112 1199 1116 1189 1191 1195 
1188 1193 1200 1186 1198 1194 1190 1192 1209 
1207 1213 1206 1208 1158 1204 1182 1201 1212 
1205 1202 1203 1211 1210 1196 1223 1225 1219 
1197 1218 1224 1220 1217 1222 1215 1216 1214 
1226 1221 1231 1230 1235 1237 1234 1227 1236 
1238 1232 1228 1233 1229 1239 1245 1249 1243 
1246 1250 1244 1252 1248 1247 1240 1241 1242 
1251 1256 1257 1260 1262 1264 1254 1255 1253 
1259 1274 1261 1263 1258 1277 1268 1271 1270 
1273 1267 1276 1269 1272 1275 1265 1266 
type 1 1277 int
1 1 1 1 1 1 1 1 1 
1 1 1 1 1 1 1 1 1 
1 1 1 1 1 1 1 1 1 
1 1 1 1 1 1 1 1 1 
1 1 1 1 1 1 1 1 1 
1 1 1 1 1 1 1 1 1 
1 1 1 1 1 1 1 1 1 
1 1 1 1 1 1 1 1 1 
1 1 1 1 1 1 1 1 1 
1 1 1 1 1 1 1 1 1 
1 1 1 1 1 1 1 1 1 
1 1 1 1 1 1 1 1 1 
1 1 1 1 1 1 1 1 1 
1 1 1 1 1 1 1 1 1 
1 1 1 1 1 1 1 1 1 
1 1 1 1 1 1 1 1 1 
1 1 1 1 1 1 1 1 1 
1 1 1 1 1 1 1 1 1 
1 1 1 1 1 1 1 1 1 
1 1 1 1 1 1 1 1 1 
1 1 1 1 1 1 1 1 1 
1 1 1 1 1 1 1 1 1 
1 1 1 1 1 1 1 1 1 
1 1 1 1 1 1 1 1 1 
1 1 1 1 1 1 1 1 1 
1 1 1 1 1 1 1 1 1 
1 1 1 1 1 1 1 1 1 
1 1 1 1 1 1 1 1 1 
1 1 1 1 1 1 1 1 1 
1 1 1 1 1 1 1 1 1 
1 1 1 1 1 1 1 1 1 
1 1 1 1 1 1 1 1 1 
1 1 1 1 1 1 1 1 1 
1 1 1 1 1 1 1 1 1 
1 1 1 1 1 1 1 1 1 
1 1 1 1 1 1 1 1 1 
1 1 1 1 1 1 1 1 1 
1 1 1 1 1 1 1 1 1 
1 1 1 1 1 1 1 1 1 
1 1 1 1 1 1 1 1 1 
1 1 1 1 1 1 1 1 1 
1 1 1 1 1 1 1 1 1 
1 1 1 1 1 1 1 1 1 
1 1 1 1 1 1 1 1 1 
1 1 1 1 1 1 1 1 1 
1 1 1 1 1 1 1 1 1 
1 1 1 1 1 1 1 1 1 
1 1 1 1 1 1 1 1 1 
1 1 1 1 1 1 1 1 1 
1 1 1 1 1 1 1 1 1 
1 1 1 1 1 1 1 1 1 
1 1 1 1 1 1 1 1 1 
1 1 1 1 1 1 1 1 1 
1 1 1 1 1 1 1 1 1 
1 1 1 1 1 1 1 1 1 
1 1 1 1 1 1 1 1 1 
1 1 1 1 1 1 1 1 1 
1 1 1 1 1 1 1 1 1 
1 1 1 1 1 1 1 1 1 
1 1 1 1 1 1 1 1 1 
1 1 1 1 1 1 1 1 1 
1 1 1 1 1 1 1 1 1 
1 1 1 1 1 1 1 1 1 
1 1 1 1 1 1 1 1 1 
1 1 1 1 1 1 1 1 1 
1 1 1 1 1 1 1 1 1 
1 1 1 1 1 1 1 1 1 
1 1 1 1 1 1 1 1 1 
1 1 1 1 1 1 1 1 1 
1 1 1 1 1 1 1 1 1 
1 1 1 1 1 1 1 1 1 
1 1 1 1 1 1 1 1 1 
1 1 1 1 1 1 1 1 1 
1 1 1 1 1 1 1 1 1 
1 1 1 1 1 1 1 1 1 
1 1 1 1 1 1 1 1 1 
1 1 1 1 1 1 1 1 1 
1 1 1 1 1 1 1 1 1 
1 1 1 1 1 1 1 1 1 
1 1 1 1 1 1 1 1 1 
1 1 1 1 1 1 1 1 1 
1 1 1 1 1 1 1 1 1 
1 1 1 1 1 1 1 1 1 
1 1 1 1 1 1 1 1 1 
1 1 1 1 1 1 1 1 1 
1 1 1 1 1 1 1 1 1 
1 1 1 1 1 1 1 1 1 
1 1 1 1 1 1 1 1 1 
1 1 1 1 1 1 1 1 1 
1 1 1 1 1 1 1 1 1 
1 1 1 1 1 1 1 1 1 
1 1 1 1 1 1 1 1 1 
1 1 1 1 1 1 1 1 1 
1 1 1 1 1 1 1 1 1 
1 1 1 1 1 1 1 1 1 
1 1 1 1 1 1 1 1 1 
1 1 1 1 1 1 1 1 1 
1 1 1 1 1 1 1 1 1 
1 1 1 1 1 1 1 1 1 
1 1 1 1 1 1 1 1 1 
1 1 1 1 1 1 1 1 1 
1 1 1 1 1 1 1 1 1 
1 1 1 1 1 1 1 1 1 
1 1 1 1 1 1 1 1 1 
1 1 1 1 1 1 1 1 1 
1 1 1 1 1 1 1 1 1 
1 1 1 1 1 1 1 1 1 
1 1 1 1 1 1 1 1 1 
1 1 1 1 1 1 1 1 1 
1 1 1 1 1 1 1 1 1 
1 1 1 1 1 1 1 1 1 
1 1 1 1 1 1 1 1 1 
1 1 1 1 1 1 1 1 1 
1 1 1 1 1 1 1 1 1 
1 1 1 1 1 1 1 1 1 
1 1 1 1 1 1 1 1 1 
1 1 1 1 1 1 1 1 1 
1 1 1 1 1 1 1 1 1 
1 1 1 1 1 1 1 1 1 
1 1 1 1 1 1 1 1 1 
1 1 1 1 1 1 1 1 1 
1 1 1 1 1 1 1 1 1 
1 1 1 1 1 1 1 1 1 
1 1 1 1 1 1 1 1 1 
1 1 1 1 1 1 1 1 1 
1 1 1 1 1 1 1 1 1 
1 1 1 1 1 1 1 1 1 
1 1 1 1 1 1 1 1 1 
1 1 1 1 1 1 1 1 1 
1 1 1 1 1 1 1 1 1 
1 1 1 1 1 1 1 1 1 
1 1 1 1 1 1 1 1 1 
1 1 1 1 1 1 1 1 1 
1 1 1 1 1 1 1 1 1 
1 1 1 1 1 1 1 1 1 
1 1 1 1 1 1 1 1 1 
1 1 1 1 1 1 1 1 1 
1 1 1 1 1 1 1 1 1 
1 1 1 1 1 1 1 1 1 
1 1 1 1 1 1 1 1 1 
1 1 1 1 1 1 1 1 1 
1 1 1 1 1 1 1 1 
i 3 1277 int
0 0 0 0 0 0 0 0 0 
0 0 0 0 0 0 0 0 0 
0 0 0 0 0 0 0 0 0 
0 0 0 0 0 0 0 0 0 
0 0 0 0 0 0 0 0 0 
0 0 0 0 0 0 0 0 0 
0 0 0 0 0 0 0 0 0 
0 0 0 0 0 0 0 0 0 
0 0 0 0 0 0 0 0 0 
0 0 0 0 0 0 0 0 0 
0 0 0 0 0 0 0 0 0 
0 0 0 0 0 0 0 0 0 
0 0 0 0 0 0 0 0 0 
0 0 0 0 0 0 0 0 0 
0 0 0 0 0 0 0 0 0 
0 0 0 0 0 0 0 0 0 
0 0 0 0 0 0 0 0 0 
0 0 0 0 0 0 0 0 0 
0 0 0 0 0 0 0 0 0 
0 0 0 0 0 0 0 0 0 
0 0 0 0 0 0 0 0 0 
0 0 0 0 0 0 0 0 0 
0 0 0 0 0 0 0 0 0 
0 0 0 0 0 0 0 0 0 
0 0 0 0 0 0 0 0 0 
0 0 0 0 0 0 0 0 0 
0 0 0 0 0 0 0 0 0 
0 0 0 0 0 0 0 0 0 
0 0 0 0 0 0 0 0 0 
0 0 0 0 0 0 0 0 0 
0 0 0 0 0 0 0 0 0 
0 0 0 0 0 0 0 0 0 
0 0 0 0 0 0 0 0 0 
0 0 0 0 0 0 0 0 0 
0 0 0 0 0 0 0 0 0 
0 0 0 0 0 0 0 0 0 
0 0 0 0 0 0 0 0 0 
0 0 0 0 0 0 0 0 0 
0 0 0 0 0 0 0 0 0 
0 0 0 0 0 0 0 0 0 
0 0 0 0 0 0 0 0 0 
0 0 0 0 0 0 0 0 0 
0 0 0 0 0 0 0 0 0 
0 0 0 0 0 0 0 0 0 
0 0 0 0 0 0 0 0 0 
0 0 0 0 0 0 0 0 0 
0 0 0 0 0 0 0 0 0 
0 0 0 0 0 0 0 0 0 
0 0 0 0 0 0 0 0 0 
0 0 0 0 0 0 0 0 0 
0 0 0 0 0 0 0 0 0 
0 0 0 0 0 0 0 0 0 
0 0 0 0 0 0 0 0 0 
0 0 0 0 0 0 0 0 0 
0 0 0 0 0 0 0 0 0 
0 0 0 0 0 0 0 0 0 
0 0 0 0 0 0 0 0 0 
0 0 0 0 0 0 0 0 0 
0 0 0 0 0 0 0 0 0 
0 0 0 0 0 0 0 0 0 
0 0 0 0 0 0 0 0 0 
0 0 0 0 0 0 0 0 0 
0 0 0 0 0 0 0 0 0 
0 0 0 0 0 0 0 0 0 
0 0 0 0 0 0 0 0 0 
0 0 0 0 0 0 0 0 0 
0 0 0 0 0 0 0 0 0 
0 0 0 0 0 0 0 0 0 
0 0 0 0 0 0 0 0 0 
0 0 0 0 0 0 0 0 0 
0 0 0 0 0 0 0 0 0 
0 0 0 0 0 0 0 0 0 
0 0 0 0 0 0 0 0 0 
0 0 0 0 0 0 0 0 0 
0 0 0 0 0 0 0 0 0 
0 0 0 0 0 0 0 0 0 
0 0 0 0 0 0 0 0 0 
0 0 0 0 0 0 0 0 0 
0 0 0 0 0 0 0 0 0 
0 0 0 0 0 0 0 0 0 
0 0 0 0 0 0 0 0 0 
0 0 0 0 0 0 0 0 0 
0 0 0 0 0 0 0 0 0 
0 0 0 0 0 0 0 0 0 
0 0 0 0 0 0 0 0 0 
0 0 0 0 0 0 0 0 0 
0 0 0 0 0 0 0 0 0 
0 0 0 0 0 0 0 0 0 
0 0 0 0 0 0 0 0 0 
0 0 0 0 0 0 0 0 0 
0 0 0 0 0 0 0 0 0 
0 0 0 0 0 0 0 0 0 
0 0 0 0 0 0 0 0 0 
0 0 0 0 0 0 0 0 0 
0 0 0 0 0 0 0 0 0 
0 0 0 0 0 0 0 0 0 
0 0 0 0 0 0 0 0 0 
0 0 0 0 0 0 0 0 0 
0 0 0 0 0 0 0 0 0 
0 0 0 0 0 0 0 0 0 
0 0 0 0 0 0 0 0 0 
0 0 0 0 0 0 0 0 0 
0 0 0 0 0 0 0 0 0 
0 0 0 0 0 0 0 0 0 
0 0 0 0 0 0 0 0 0 
0 0 0 0 0 0 0 0 0 
0 0 0 0 0 0 0 0 0 
0 0 0 0 0 0 0 0 0 
0 0 0 0 0 0 0 0 0 
0 0 0 0 0 0 0 0 0 
0 0 0 0 0 0 0 0 0 
0 0 0 0 0 0 0 0 0 
0 0 0 0 0 0 0 0 0 
0 0 0 0 0 0 0 0 0 
0 0 0 0 0 0 0 0 0 
0 0 0 0 0 0 0 0 0 
0 0 0 0 0 0 0 0 0 
0 0 0 0 0 0 0 0 0 
0 0 0 0 0 0 0 0 0 
0 0 0 0 0 0 0 0 0 
0 0 0 0 0 0 0 0 0 
0 0 0 0 0 0 0 0 0 
0 0 0 0 0 0 0 0 0 
0 0 0 0 0 0 0 0 0 
0 0 0 0 0 0 0 0 0 
0 0 0 0 0 0 0 0 0 
0 0 0 0 0 0 0 0 0 
0 0 0 0 0 0 0 0 0 
0 0 0 0 0 0 0 0 0 
0 0 0 0 0 0 0 0 0 
0 0 0 0 0 0 0 0 0 
0 0 0 0 0 0 0 0 0 
0 0 0 0 0 0 0 0 0 
0 0 0 0 0 0 0 0 0 
0 0 0 0 0 0 0 0 0 
0 0 0 0 0 0 0 0 0 
0 0 0 0 0 0 0 0 0 
0 0 0 0 0 0 0 0 0 
0 0 0 0 0 0 0 0 0 
0 0 0 0 0 0 0 0 0 
0 0 0 0 0 0 0 0 0 
0 0 0 0 0 0 0 0 0 
0 0 0 0 0 0 0 0 0 
0 0 0 0 0 0 0 0 0 
0 0 0 0 0 0 0 0 0 
0 0 0 0 0 0 0 0 0 
0 0 0 0 0 0 0 0 0 
0 0 0 0 0 0 0 0 0 
0 0 0 0 0 0 0 0 0 
0 0 0 0 0 0 0 0 0 
0 0 0 0 0 0 0 0 0 
0 0 0 0 0 0 0 0 0 
0 0 0 0 0 0 0 0 0 
0 0 0 0 0 0 0 0 0 
0 0 0 0 0 0 0 0 0 
0 0 0 0 0 0 0 0 0 
0 0 0 0 0 0 0 0 0 
0 0 0 0 0 0 0 0 0 
0 0 0 0 0 0 0 0 0 
0 0 0 0 0 0 0 0 0 
0 0 0 0 0 0 0 0 0 
0 0 0 0 0 0 0 0 0 
0 0 0 0 0 0 0 0 0 
0 0 0 0 0 0 0 0 0 
0 0 0 0 0 0 0 0 0 
0 0 0 0 0 0 0 0 0 
0 0 0 0 0 0 0 0 0 
0 0 0 0 0 0 0 0 0 
0 0 0 0 0 0 0 0 0 
0 0 0 0 0 0 0 0 0 
0 0 0 0 0 0 0 0 0 
0 0 0 0 0 0 0 0 0 
0 0 0 0 0 0 0 0 0 
0 0 0 0 0 0 0 0 0 
0 0 0 0 0 0 0 0 0 
0 0 0 0 0 0 0 0 0 
0 0 0 0 0 0 0 0 0 
0 0 0 0 0 0 0 0 0 
0 0 0 0 0 0 0 0 0 
0 0 0 0 0 0 0 0 0 
0 0 0 0 0 0 0 0 0 
0 0 0 0 0 0 0 0 0 
0 0 0 0 0 0 0 0 0 
0 0 0 0 0 0 0 0 0 
0 0 0 0 0 0 0 0 0 
0 0 0 0 0 0 0 0 0 
0 0 0 0 0 0 0 0 0 
0 0 0 0 0 0 0 0 0 
0 0 0 0 0 0 0 0 0 
0 0 0 0 0 0 0 0 0 
0 0 0 0 0 0 0 0 0 
0 0 0 0 0 0 0 0 0 
0 0 0 0 0 0 0 0 0 
0 0 0 0 0 0 0 0 0 
0 0 0 0 0 0 0 0 0 
0 0 0 0 0 0 0 0 0 
0 0 0 0 0 0 0 0 0 
0 0 0 0 0 0 0 0 0 
0 0 0 0 0 0 0 0 0 
0 0 0 0 0 0 0 0 0 
0 0 0 0 0 0 0 0 0 
0 0 0 0 0 0 0 0 0 
0 0 0 0 0 0 0 0 0 
0 0 0 0 0 0 0 0 0 
0 0 0 0 0 0 0 0 0 
0 0 0 0 0 0 0 0 0 
0 0 0 0 0 0 0 0 0 
0 0 0 0 0 0 0 0 0 
0 0 0 0 0 0 0 0 0 
0 0 0 0 0 0 0 0 0 
0 0 0 0 0 0 0 0 0 
0 0 0 0 0 0 0 0 0 
0 0 0 0 0 0 0 0 0 
0 0 0 0 0 0 0 0 0 
0 0 0 0 0 0 0 0 0 
0 0 0 0 0 0 0 0 0 
0 0 0 0 0 0 0 0 0 
0 0 0 0 0 0 0 0 0 
0 0 0 0 0 0 0 0 0 
0 0 0 0 0 0 0 0 0 
0 0 0 0 0 0 0 0 0 
0 0 0 0 0 0 0 0 0 
0 0 0 0 0 0 0 0 0 
0 0 0 0 0 0 0 0 0 
0 0 0 0 0 0 0 0 0 
0 0 0 0 0 0 0 0 0 
0 0 0 0 0 0 0 0 0 
0 0 0 0 0 0 0 0 0 
0 0 0 0 0 0 0 0 0 
0 0 0 0 0 0 0 0 0 
0 0 0 0 0 0 0 0 0 
0 0 0 0 0 0 0 0 0 
0 0 0 0 0 0 0 0 0 
0 0 0 0 0 0 0 0 0 
0 0 0 0 0 0 0 0 0 
0 0 0 0 0 0 0 0 0 
0 0 0 0 0 0 0 0 0 
0 0 0 0 0 0 0 0 0 
0 0 0 0 0 0 0 0 0 
0 0 0 0 0 0 0 0 0 
0 0 0 0 0 0 0 0 0 
0 0 0 0 0 0 0 0 0 
0 0 0 0 0 0 0 0 0 
0 0 0 0 0 0 0 0 0 
0 0 0 0 0 0 0 0 0 
0 0 0 0 0 0 0 0 0 
0 0 0 0 0 0 0 0 0 
0 0 0 0 0 0 0 0 0 
0 0 0 0 0 0 0 0 0 
0 0 0 0 0 0 0 0 0 
0 0 0 0 0 0 0 0 0 
0 0 0 0 0 0 0 0 0 
0 0 0 0 0 0 0 0 0 
0 0 0 0 0 0 0 0 0 
0 0 0 0 0 0 0 0 0 
0 0 0 0 0 0 0 0 0 
0 0 0 0 0 0 0 0 0 
0 0 0 0 0 0 0 0 0 
0 0 0 0 0 0 0 0 0 
0 0 0 0 0 0 0 0 0 
0 0 0 0 0 0 0 0 0 
0 0 0 0 0 0 0 0 0 
0 0 0 0 0 0 0 0 0 
0 0 0 0 0 0 0 0 0 
0 0 0 0 0 0 0 0 0 
0 0 0 0 0 0 0 0 0 
0 0 0 0 0 0 0 0 0 
0 0 0 0 0 0 0 0 0 
0 0 0 0 0 0 0 0 0 
0 0 0 0 0 0 0 0 0 
0 0 0 0 0 0 0 0 0 
0 0 0 0 0 0 0 0 0 
0 0 0 0 0 0 0 0 0 
0 0 0 0 0 0 0 0 0 
0 0 0 0 0 0 0 0 0 
0 0 0 0 0 0 0 0 0 
0 0 0 0 0 0 0 0 0 
0 0 0 0 0 0 0 0 0 
0 0 0 0 0 0 0 0 0 
0 0 0 0 0 0 0 0 0 
0 0 0 0 0 0 0 0 0 
0 0 0 0 0 0 0 0 0 
0 0 0 0 0 0 0 0 0 
0 0 0 0 0 0 0 0 0 
0 0 0 0 0 0 0 0 0 
0 0 0 0 0 0 0 0 0 
0 0 0 0 0 0 0 0 0 
0 0 0 0 0 0 0 0 0 
0 0 0 0 0 0 0 0 0 
0 0 0 0 0 0 0 0 0 
0 0 0 0 0 0 0 0 0 
0 0 0 0 0 0 0 0 0 
0 0 0 0 0 0 0 0 0 
0 0 0 0 0 0 0 0 0 
0 0 0 0 0 0 0 0 0 
0 0 0 0 0 0 0 0 0 
0 0 0 0 0 0 0 0 0 
0 0 0 0 0 0 0 0 0 
0 0 0 0 0 0 0 0 0 
0 0 0 0 0 0 0 0 0 
0 0 0 0 0 0 0 0 0 
0 0 0 0 0 0 0 0 0 
0 0 0 0 0 0 0 0 0 
0 0 0 0 0 0 0 0 0 
0 0 0 0 0 0 0 0 0 
0 0 0 0 0 0 0 0 0 
0 0 0 0 0 0 0 0 0 
0 0 0 0 0 0 0 0 0 
0 0 0 0 0 0 0 0 0 
0 0 0 0 0 0 0 0 0 
0 0 0 0 0 0 0 0 0 
0 0 0 0 0 0 0 0 0 
0 0 0 0 0 0 0 0 0 
0 0 0 0 0 0 0 0 0 
0 0 0 0 0 0 0 0 0 
0 0 0 0 0 0 0 0 0 
0 0 0 0 0 0 0 0 0 
0 0 0 0 0 0 0 0 0 
0 0 0 0 0 0 0 0 0 
0 0 0 0 0 0 0 0 0 
0 0 0 0 0 0 0 0 0 
0 0 0 0 0 0 0 0 0 
0 0 0 0 0 0 0 0 0 
0 0 0 0 0 0 0 0 0 
0 0 0 0 0 0 0 0 0 
0 0 0 0 0 0 0 0 0 
0 0 0 0 0 0 0 0 0 
0 0 0 0 0 0 0 0 0 
0 0 0 0 0 0 0 0 0 
0 0 0 0 0 0 0 0 0 
0 0 0 0 0 0 0 0 0 
0 0 0 0 0 0 0 0 0 
0 0 0 0 0 0 0 0 0 
0 0 0 0 0 0 0 0 0 
0 0 0 0 0 0 0 0 0 
0 0 0 0 0 0 0 0 0 
0 0 0 0 0 0 0 0 0 
0 0 0 0 0 0 0 0 0 
0 0 0 0 0 0 0 0 0 
0 0 0 0 0 0 0 0 0 
0 0 0 0 0 0 0 0 0 
0 0 0 0 0 0 0 0 0 
0 0 0 0 0 0 0 0 0 
0 0 0 0 0 0 0 0 0 
0 0 0 0 0 0 0 0 0 
0 0 0 0 0 0 0 0 0 
0 0 0 0 0 0 0 0 0 
0 0 0 0 0 0 0 0 0 
0 0 0 0 0 0 0 0 0 
0 0 0 0 0 0 0 0 0 
0 0 0 0 0 0 0 0 0 
0 0 0 0 0 0 0 0 0 
0 0 0 0 0 0 0 0 0 
0 0 0 0 0 0 0 0 0 
0 0 0 0 0 0 0 0 0 
0 0 0 0 0 0 0 0 0 
0 0 0 0 0 0 0 0 0 
0 0 0 0 0 0 0 0 0 
0 0 0 0 0 0 0 0 0 
0 0 0 0 0 0 0 0 0 
0 0 0 0 0 0 0 0 0 
0 0 0 0 0 0 0 0 0 
0 0 0 0 0 0 0 0 0 
0 0 0 0 0 0 0 0 0 
0 0 0 0 0 0 0 0 0 
0 0 0 0 0 0 0 0 0 
0 0 0 0 0 0 0 0 0 
0 0 0 0 0 0 0 0 0 
0 0 0 0 0 0 0 0 0 
0 0 0 0 0 0 0 0 0 
0 0 0 0 0 0 0 0 0 
0 0 0 0 0 0 0 0 0 
0 0 0 0 0 0 0 0 0 
0 0 0 0 0 0 0 0 0 
0 0 0 0 0 0 0 0 0 
0 0 0 0 0 0 0 0 0 
0 0 0 0 0 0 0 0 0 
0 0 0 0 0 0 0 0 0 
0 0 0 0 0 0 0 0 0 
0 0 0 0 0 0 0 0 0 
0 0 0 0 0 0 0 0 0 
0 0 0 0 0 0 0 0 0 
0 0 0 0 0 0 0 0 0 
0 0 0 0 0 0 0 0 0 
0 0 0 0 0 0 0 0 0 
0 0 0 0 0 0 0 0 0 
0 0 0 0 0 0 0 0 0 
0 0 0 0 0 0 0 0 0 
0 0 0 0 0 0 0 0 0 
0 0 0 0 0 0 0 0 0 
0 0 0 0 0 0 0 0 0 
0 0 0 0 0 0 0 0 0 
0 0 0 0 0 0 0 0 0 
0 0 0 0 0 0 0 0 0 
0 0 0 0 0 0 0 0 0 
0 0 0 0 0 0 0 0 0 
0 0 0 0 0 0 0 0 0 
0 0 0 0 0 0 0 0 0 
0 0 0 0 0 0 0 0 0 
0 0 0 0 0 0 0 0 0 
0 0 0 0 0 0 0 0 0 
0 0 0 0 0 0 0 0 0 
0 0 0 0 0 0 0 0 0 
0 0 0 0 0 0 0 0 0 
0 0 0 0 0 0 0 0 0 
0 0 0 0 0 0 0 0 0 
0 0 0 0 0 0 0 0 0 
0 0 0 0 0 0 0 0 0 
0 0 0 0 0 0 0 0 0 
0 0 0 0 0 0 0 0 0 
0 0 0 0 0 0 0 0 0 
0 0 0 0 0 0 0 0 0 
0 0 0 0 0 0 0 0 0 
0 0 0 0 0 0 0 0 0 
0 0 0 0 0 0 0 0 0 
0 0 0 0 0 0 0 0 0 
0 0 0 0 0 0 0 0 0 
0 0 0 0 0 0 0 0 0 
0 0 0 0 0 0 0 0 0 
0 0 0 0 0 0 0 0 0 
0 0 0 0 0 0 0 0 0 
0 0 0 0 0 0 0 0 0 
0 0 0 0 0 0 0 0 0 
0 0 0 0 0 0 0 0 0 
0 0 0 0 0 0 0 0 0 
0 0 0 0 0 0 
v 3 1277 double
0.00419242 0.00319822 -3.92366e-07 0.0102344 -0.00165667 0.00154018 0.0128865 0.00214603 -0.00182953 
0.00725094 0.000729201 0.00161008 0.00260059 -0.000195269 -0.00244266 0.00643319 -0.0113321 9.6426e-06 
0.0162794 0.00963648 0.00398534 0.00448261 0.00298126 -9.58807e-05 0.000637028 0.000352087 6.52185e-05 
0.000639943 8.59501e-05 5.4751e-05 -0.00159968 -0.00282845 0.000165308 0.0061352 -0.0019178 0.00190965 
0.00294149 -0.0141538 0.000888285 0.010018 0.00221956 0.000237354 0.00901327 -0.00618783 -3.77239e-05 
0.0138791 -0.0147626 -9.86558e-08 0.0143963 -0.0118385 -2.43041e-08 0.0176573 -0.0105322 0.000964183 
0.0333315 -0.00887822 -0.00198457 0.0101874 -0.00394324 0.00074653 0.00477133 0.00200103 -0.00106078 
0.00138876 0.00141541 -0.00180638 0.000489276 0.00114505 -0.000350909 0.00371184 0.000828573 0.000366697 
0.00553868 0.00122499 -0.00529882 0.000374585 -0.00728192 0.00288801 0.0120354 0.002396 8.20147e-05 
-0.00186201 0.00536145 0.00159886 0.00638887 -0.0184143 -4.54003e-06 0.00215718 -0.0111505 0.00220388 
-0.0243636 -0.0161089 0.0123796 0.0128687 -0.0123575 0.00222072 0.0622058 -0.0294153 -0.0146111 
0.0184392 0.00340055 -8.48536e-05 0.00946324 0.00209888 -0.000722278 0.0030356 0.00150923 0.00211586 
0.0264591 -0.00808301 -0.0118836 0.00767458 0.00333939 -0.00212386 -0.00157399 0.000683953 -0.000852462 
0.00288065 5.92781e-05 -0.000422415 0.0084618 0.00500323 -0.000543179 0.00619764 -0.0015699 -0.00157319 
0.0103767 -0.0096353 -0.0124279 0.00647003 -0.0171789 -0.00149452 -0.0296948 0.0135937 2.91825e-08 
-0.00133218 0.003909 -0.000169101 -0.0104562 0.00702411 0.00137456 0.0131188 -0.0282496 -0.00900642 
0.0148862 -0.00817261 -0.00405469 0.0128114 -0.00961635 -5.4172e-05 0.00688658 -0.00995571 -0.00238701 
-0.000548587 0.00128732 -7.9971e-06 -0.000786264 0.00110761 3.15429e-06 -0.000167613 -0.00157842 0.000671655 
0.00113839 -0.00941305 -0.000282813 -0.0108396 -0.0223993 0.000152993 -0.00208196 0.00773564 0.00289237 
0.00226804 0.00161086 0.00245621 0.0155264 0.0127049 0.00131596 0.00987716 -0.0166333 -0.000708038 
0.00115599 0.0322714 1.4971e-05 0.0331531 0.00187182 0.0261665 0.0334065 0.020144 0.0171585 
-0.00894042 0.00532764 0.00154522 -0.00584545 -0.00558892 -0.00550983 0.00560128 -0.00041471 -0.00176596 
-0.00206261 0.007998 -0.000176607 0.00494503 0.00700243 -0.00065161 0.00219322 -0.000845641 0.00132953 
-0.00219525 0.00278527 -0.00185073 -0.00360517 0.00430484 0.00132973 0.00342255 0.000229872 1.79214e-05 
0.000608767 1.1549e-05 0.00060738 -0.00384859 -0.00606366 -0.0131845 0.00315907 -0.0134087 -0.00147966 
-0.0227719 0.0340033 0.0431039 0.0147422 -0.00475444 -4.16698e-07 -0.00544128 0.013476 -3.74932e-05 
0.00101781 -0.00836098 -0.0107141 0.00406113 0.0114954 -0.004869 0.0378816 0.0247238 0.00688117 
-0.0064911 -0.00529778 -0.023299 -0.00600863 -0.00754385 -0.00474021 -0.00144611 0.00605649 0.00510831 
-0.00294813 0.0129292 -0.00279539 0.00450143 -0.00585139 -0.00640145 0.0124873 -0.0177924 -0.0389149 
0.00156172 -0.00217798 -1.02873e-06 0.00322429 0.000790591 -9.60916e-05 0.00240366 -0.00272091 -0.00143513 
0.00370559 -0.00371629 1.71888e-05 -0.003147 0.00412434 -7.17884e-05 0.010127 0.00123567 4.13955e-05 
2.49331e-05 -0.0226726 0.000161572 0.00638216 -0.00930977 -0.00078288 -0.0018052 0.00024071 -0.000194353 
0.000495778 -0.000616333 -0.00175573 -0.0122349 -0.00213165 2.09583e-06 -0.04675 0.00997672 -0.0249196 
-0.0194504 -0.00399546 -0.00108287 0.00790716 0.0356134 0.00588813 0.0138373 0.031851 -0.00268136 
0.0136999 0.014185 -0.00938998 0.00860081 -0.00420358 0.00102411 -0.0320962 0.0201882 0.00243859 
-0.0125456 0.00127821 -2.45562e-13 -0.0101059 0.0186134 -0.0109408 0.00346933 0.0025689 -0.00163317 