# vtk DataFile Version 4.0
Generated by LIGGGHTS
ASCII
DATASET POLYDATA
POINTS 181 float
0.0156724 -0.0417724 0.0817613 -0.00444145 0.0354515 0.0834748 0.00150554 0.0413543 0.0829102 
0.000513327 -0.037234 0.0857137 0.00672664 -0.0209696 0.0848451 -0.00865698 0.0141594 0.0855504 
0.00287347 0.0149477 0.082509 0.0280893 0.0208762 0.0840733 -0.0100185 0.0232474 0.0845908 
0.00267225 -0.0311462 0.090053 -0.0286104 -0.0120501 0.0874984 -0.00839328 0.0186725 0.0890123 
-0.00264468 0.0175324 0.0883106 -0.0291094 0.0288228 0.0891129 0.0264286 0.0315027 0.0840721 
-0.0219668 -0.0387288 0.0919043 -0.00663153 -0.028173 0.0869309 -0.0253834 -0.0255391 0.090828 
-0.0254941 -0.0207414 0.0911848 -0.0382166 0.0161527 0.0918042 0.0227557 0.0334582 0.0877139 
-0.00690591 0.0411078 0.090906 -0.000398206 -0.0230339 0.0920149 0.024301 0.0299108 0.0912011 
-0.0158352 -0.0285597 0.0953333 -0.0045694 0.0174096 0.0950384 -0.0137208 -0.0112785 0.0978523 
-0.0127018 0.0383043 0.0964057 0.0166814 0.0405036 0.0976685 -0.027922 0.0326549 0.101821 
0.0140835 -0.027207 0.109943 0.017453 -0.0376727 0.110369 -0.0464447 0.00869705 0.114914 
-0.0123342 0.0293474 0.116871 0.0416015 -0.00603304 0.120317 -0.0225317 0.0287246 0.119593 
-0.0440126 0.00241966 0.124849 0.00747748 0.00788363 0.12641 0.00531137 0.0202999 0.121347 
0.0371595 0.0250115 0.121577 -0.0255693 -0.0192667 0.129787 -0.00314877 -0.0166089 0.127572 
-0.020388 -0.0123409 0.1266 -0.0119444 -0.0127977 0.12614 -0.000871569 -0.00864942 0.125122 
-0.0338839 0.0143092 0.125361 0.0100526 -0.0261413 0.129424 0.00531188 -0.018041 0.130449 
-0.0292834 0.0168708 0.128606 -0.0223302 0.0311954 0.128881 -0.0330558 -0.0114634 0.136342 
-0.0345136 -0.00598207 0.134239 -0.00976784 0.0286428 0.133733 -0.00522731 -0.0490995 0.139879 
-0.00829976 -0.0237841 0.138117 -0.0197192 -0.00580586 0.140097 -0.00215446 0.00589038 0.135374 
-0.0290661 0.0158254 0.137555 0.0120073 -0.0233996 0.140422 -0.0198292 -0.0126789 0.141078 
-0.000486284 -0.00616492 0.139084 -0.017327 -0.0113461 0.144825 -0.00766248 0.0402567 0.14287 
0.0336244 -0.0185083 0.14646 -0.0179679 -0.0221794 0.155164 -0.0244408 0.0174531 0.154387 
-0.00603342 0.0215828 0.155232 0.0045847 -0.0476758 0.158527 -0.00608595 -0.031119 0.156928 
-0.0314694 -0.0134405 0.156922 -0.00827141 -0.0127553 0.156558 -0.0237248 -0.0145765 0.161864 
-0.0240554 0.000487814 0.161989 -0.0051783 0.0279972 0.162101 0.00618712 -0.016273 0.165134 
-0.0242227 0.0349177 0.166547 0.0114037 -0.0394429 0.169252 0.0416478 0.00873664 0.167906 
0.0035051 0.020701 0.168526 0.00956794 0.022498 0.17204 -0.00676178 -0.041834 0.176707 
-0.0274176 -0.0328806 0.175874 0.0427088 0.00124279 0.178296 0.049674 -0.00138229 0.175433 
-0.000992854 -0.0338985 0.177882 0.0274407 -0.0177667 0.179812 0.0414337 0.0229886 0.180877 
0.0300866 0.0304163 0.177747 0.0209801 0.0386141 0.179104 0.0283993 -0.0326687 0.18568 
-0.0244543 -0.0285598 0.183614 0.0356004 -0.0175009 0.185413 0.037024 0.0162938 0.183236 
0.00758188 -0.0317734 0.185138 -0.025817 -0.00261647 0.187653 -0.000925158 0.00694521 0.185716 
-0.001664 0.0116979 0.186669 -0.0242922 -0.0328428 0.190355 0.0319689 -0.0241855 0.188272 
-0.0247519 -0.000701103 0.190935 0.0331831 0.0173529 0.196687 -0.029508 0.0202128 0.193258 
0.0268127 -0.0340489 0.197586 -0.00253214 0.002545 0.20009 0.0100199 0.0185139 0.198156 
0.0198041 0.0197649 0.197578 0.0247903 -0.014653 0.202958 -0.034802 -0.00453532 0.200998 
-0.0228421 0.00576321 0.201171 0.034958 0.00725781 0.203369 0.0194512 0.0117061 0.204599 
0.00195138 0.0127399 0.201188 0.0130155 0.0151868 0.201876 0.00705045 0.0287968 0.20127 
-0.0337087 -0.0108306 0.202559 0.0230983 0.01094 0.205658 0.0219987 -0.0113183 0.20895 
-0.00310456 -0.00238127 0.206069 -0.0314258 0.00163686 0.207188 -0.0283468 0.0166897 0.206769 
-0.0213418 0.0220867 0.209368 -0.00985171 0.0212243 0.207819 -0.0134176 0.0265745 0.206108 
-0.00345523 0.0358281 0.207033 -0.000109506 0.0394086 0.208891 0.00410449 -0.0317165 0.212928 
0.019974 0.0149789 0.211796 -0.00313803 0.0293374 0.209975 0.0376327 -0.017378 0.216272 
-0.0201079 -0.0191818 0.220112 -0.0260928 -0.00581085 0.219988 -0.0228585 0.00768131 0.21849 
-0.0297172 0.0230678 0.217948 0.0262197 0.0338431 0.218691 0.0287623 -0.00959871 0.222297 
-0.0399526 -0.00760015 0.22376 0.00773408 0.000760233 0.227169 -0.00461067 0.0201597 0.227158 
0.0182187 0.0234572 0.225353 0.0238941 -0.0338409 0.22862 -0.0107564 0.00847008 0.230361 
0.04126 0.0149672 0.229778 0.0139019 0.0165405 0.228707 -0.00744666 0.00531134 0.232695 
0.017494 0.0195812 0.232427 -0.00783351 0.0307613 0.23312 0.0195549 0.0328932 0.231987 
0.0124824 -0.00674468 0.235275 0.00624051 0.0319942 0.236904 -0.0168101 -0.0181967 0.240182 
0.0437487 -0.00392445 0.240757 -0.0397731 0.00100133 0.2395 -0.0357082 0.000521783 0.241111 
0.00525585 0.00154901 0.241661 0.0267592 0.00599371 0.241102 -0.0089864 0.0176088 0.238163 
0.0394013 0.0195728 0.240366 0.00582446 -0.0167578 0.24338 -0.0321586 -0.00320316 0.242812 
-0.0205556 -0.021094 0.24752 -0.0158729 -0.0189529 0.248548 0.0151284 -5.99506e-05 0.247379 
0.0380996 0.0106842 0.245442 0.0352803 0.0157496 0.245453 0.00950334 -0.0346704 0.249934 
0.0231629 -0.0135729 0.251009 -0.0237446 -0.00322908 0.252319 -0.0273013 0.0141419 0.251495 
-0.0102763 0.0191868 0.249744 0.0100235 -0.0296563 0.254722 -0.00888824 0.0379912 0.254217 
-0.0109201 0.0432795 0.255116 -0.0394632 -0.0190635 0.256423 0.0106651 -0.00762351 0.258367 
0.0149248 -0.00532292 0.256928 0.0399749 0.00438302 0.258806 -0.00312493 0.00839474 0.256956 
0.0343513 0.00656387 0.256679 -0.0227629 0.0205469 0.259248 0.006248 0.0315313 0.257822 
-0.0158798 -0.039925 0.261464 
VERTICES 181 362
1 0 
1 1 
1 2 
1 3 
1 4 
1 5 
1 6 
1 7 
1 8 
1 9 
1 10 
1 11 
1 12 
1 13 
1 14 
1 15 
1 16 
1 17 
1 18 
1 19 
1 20 
1 21 
1 22 
1 23 
1 24 
1 25 
1 26 
1 27 
1 28 
1 29 
1 30 
1 31 
1 32 
1 33 
1 34 
1 35 
1 36 
1 37 
1 38 
1 39 
1 40 
1 41 
1 42 
1 43 
1 44 
1 45 
1 46 
1 47 
1 48 
1 49 
1 50 
1 51 
1 52 
1 53 
1 54 
1 55 
1 56 
1 57 
1 58 
1 59 
1 60 
1 61 
1 62 
1 63 
1 64 
1 65 
1 66 
1 67 
1 68 
1 69 
1 70 
1 71 
1 72 
1 73 
1 74 
1 75 
1 76 
1 77 
1 78 
1 79 
1 80 
1 81 
1 82 
1 83 
1 84 
1 85 
1 86 
1 87 
1 88 
1 89 
1 90 
1 91 
1 92 
1 93 
1 94 
1 95 
1 96 
1 97 
1 98 
1 99 
1 100 
1 101 
1 102 
1 103 
1 104 
1 105 
1 106 
1 107 
1 108 
1 109 
1 110 
1 111 
1 112 
1 113 
1 114 
1 115 
1 116 
1 117 
1 118 
1 119 
1 120 
1 121 
1 122 
1 123 
1 124 
1 125 
1 126 
1 127 
1 128 
1 129 
1 130 
1 131 
1 132 
1 133 
1 134 
1 135 
1 136 
1 137 
1 138 
1 139 
1 140 
1 141 
1 142 
1 143 
1 144 
1 145 
1 146 
1 147 
1 148 
1 149 
1 150 
1 151 
1 152 
1 153 
1 154 
1 155 
1 156 
1 157 
1 158 
1 159 
1 160 
1 161 
1 162 
1 163 
1 164 
1 165 
1 166 
1 167 
1 168 
1 169 
1 170 
1 171 
1 172 
1 173 
1 174 
1 175 
1 176 
1 177 
1 178 
1 179 
1 180 

POINT_DATA 181
FIELD FieldData 7
id 1 181 int
19 25 16 24 18 22 14 23 20 
6 12 5 3 8 10 2 30 9 
4 1 31 7 33 37 39 28 36 
34 27 29 50 46 49 47 43 41 
38 26 40 42 44 64 58 63 59 
54 51 53 57 56 48 62 52 11 
45 35 55 61 76 70 60 72 68 
74 77 65 71 21 90 88 84 89 
15 85 80 81 87 82 83 78 96 
94 13 69 100 95 73 103 99 67 
93 86 102 92 32 101 17 113 98 
105 91 107 110 79 66 97 109 108 
116 75 112 111 104 106 115 114 124 
122 126 125 121 120 117 123 118 119 
129 127 128 138 132 133 135 142 140 
134 139 141 131 137 146 130 136 153 
155 154 147 151 152 149 145 148 144 
156 162 150 143 163 168 164 161 165 
160 158 166 157 169 159 167 173 177 
170 178 180 172 179 175 174 176 181 
171 
type 1 181 int
1 1 1 1 1 1 1 1 1 
1 1 1 1 1 1 1 1 1 
1 1 1 1 1 1 1 1 1 
1 1 1 1 1 1 1 1 1 
1 1 1 1 1 1 1 1 1 
1 1 1 1 1 1 1 1 1 
1 1 1 1 1 1 1 1 1 
1 1 1 1 1 1 1 1 1 
1 1 1 1 1 1 1 1 1 
1 1 1 1 1 1 1 1 1 
1 1 1 1 1 1 1 1 1 
1 1 1 1 1 1 1 1 1 
1 1 1 1 1 1 1 1 1 
1 1 1 1 1 1 1 1 1 
1 1 1 1 1 1 1 1 1 
1 1 1 1 1 1 1 1 1 
1 1 1 1 1 1 1 1 1 
1 1 1 1 1 1 1 1 1 
1 1 1 1 1 1 1 1 1 
1 1 1 1 1 1 1 1 1 
1 
i 3 181 int
0 0 0 0 0 0 0 0 0 
0 0 0 0 0 0 0 0 0 
0 0 0 0 0 0 0 0 0 
0 0 0 0 0 0 0 0 0 
0 0 0 0 0 0 0 0 0 
0 0 0 0 0 0 0 0 0 
0 0 0 0 0 0 0 0 0 
0 0 0 0 0 0 0 0 0 
0 0 0 0 0 0 0 0 0 
0 0 0 0 0 0 0 0 0 
0 0 0 0 0 0 0 0 0 
0 0 0 0 0 0 0 0 0 
0 0 0 0 0 0 0 0 0 
0 0 0 0 0 0 0 0 0 
0 0 0 0 0 0 0 0 0 
0 0 0 0 0 0 0 0 0 
0 0 0 0 0 0 0 0 0 
0 0 0 0 0 0 0 0 0 
0 0 0 0 0 0 0 0 0 
0 0 0 0 0 0 0 0 0 
0 0 0 0 0 0 0 0 0 
0 0 0 0 0 0 0 0 0 
0 0 0 0 0 0 0 0 0 
0 0 0 0 0 0 0 0 0 
0 0 0 0 0 0 0 0 0 
0 0 0 0 0 0 0 0 0 
0 0 0 0 0 0 0 0 0 
0 0 0 0 0 0 0 0 0 
0 0 0 0 0 0 0 0 0 
0 0 0 0 0 0 0 0 0 
0 0 0 0 0 0 0 0 0 
0 0 0 0 0 0 0 0 0 
0 0 0 0 0 0 0 0 0 
0 0 0 0 0 0 0 0 0 
0 0 0 0 0 0 0 0 0 
0 0 0 0 0 0 0 0 0 
0 0 0 0 0 0 0 0 0 
0 0 0 0 0 0 0 0 0 
0 0 0 0 0 0 0 0 0 
0 0 0 0 0 0 0 0 0 
0 0 0 0 0 0 0 0 0 
0 0 0 0 0 0 0 0 0 
0 0 0 0 0 0 0 0 0 
0 0 0 0 0 0 0 0 0 
0 0 0 0 0 0 0 0 0 
0 0 0 0 0 0 0 0 0 
0 0 0 0 0 0 0 0 0 
0 0 0 0 0 0 0 0 0 
0 0 0 0 0 0 0 0 0 
0 0 0 0 0 0 0 0 0 
0 0 0 0 0 0 0 0 0 
0 0 0 0 0 0 0 0 0 
0 0 0 0 0 0 0 0 0 
0 0 0 0 0 0 0 0 0 
0 0 0 0 0 0 0 0 0 
0 0 0 0 0 0 0 0 0 
0 0 0 0 0 0 0 0 0 
0 0 0 0 0 0 0 0 0 
0 0 0 0 0 0 0 0 0 
0 0 0 0 0 0 0 0 0 
0 0 0 
v 3 181 double
0 0 0.601466 0 0 0.574468 0 0 0.603737 
0 0 0.533749 0 0 0.548854 0 0 0.536275 
0 0 0.610423 0 0 0.562941 0 0 0.553418 
0 0 0.449158 0 0 0.499333 0 0 0.494748 
0 0 0.508455 0 0 0.467658 0.765441 -0.407539 -1.72172 
0 0 0.43364 0 0 -2.0559 0 0 0.432545 
0 0 0.44331 0 0 0.43585 -0.165335 0.0880284 -1.58428 
0 0 0.428469 0 0 -2.03147 0 0 -2.0354 
0 0 -2.01538 0 0 -2.01686 0 0 -2.00312 
0 0 -2.01018 0 0 -2.004 0 0 -1.9836 
-0.000686134 -0.128075 -1.99015 0 0 -1.94083 -0.397605 0.294843 -1.80764 
0 0 -1.90767 0 0 -1.88991 0 0 -1.89364 
-0.366111 -0.123619 -0.802661 0.714312 0.182647 -0.552817 0 0 -1.88452 
0 0 -1.88334 -0.0971062 -0.675225 -0.637546 0 0 -1.85185 
0.00521956 -0.0250118 -1.7849 0 0 -1.85941 0 0 -1.8648 
0 0 -1.86353 -0.0912369 -0.170939 -1.55027 0 0 -1.83655 
0 0 -1.84636 0 0 -1.84489 -0.476784 -0.565119 -0.373197 
-0.642482 -0.382934 -0.750642 0 0 -1.81889 -0.00209688 0.153099 -0.983694 
-0.182859 0.0383856 -1.46329 0.115921 -0.166313 -0.12477 0 0 -1.81006 
0 0 -1.79819 0 0 -1.78249 0 0 -1.77886 
0 0 -1.78985 0 0 -1.75807 0 0 -1.76896 
0 0 -1.74894 0 0 -1.6994 0 0 -1.70392 
0 0 -1.69901 -0.189392 0.131474 -0.600319 0 0 -1.6892 
0 0 -1.6892 0 0 -1.69136 0 0 -1.66026 
-0.429613 -0.00299327 -0.950231 0 0 -1.65889 0 0 -1.64084 
0 0 -1.6324 0 0 -1.61602 0.0736568 0.148276 -1.47804 
0 0 -1.62043 0 0 -1.59905 0 0 -1.57011 
0 0 -1.57531 0.164958 -0.11648 -0.847623 0.232586 -0.037034 -0.773355 
0 0 -1.56275 0 0 -1.55059 0.393605 0.3961 -0.803236 
0 0 -1.56363 0 0 -1.5551 0.10811 -0.573945 -0.72173 
0 0 -1.52636 0.364491 -0.165353 -0.712623 0.331828 0.312605 -0.96657 
0 0 -1.51655 -0.409062 -0.0830633 -0.870371 0 0 -1.51282 
-0.225205 0.129481 -0.65361 0 0 -1.48241 0 0 -1.49614 
-0.022091 0.0106267 -1.4165 0.335078 0.471461 -0.509965 0 0 -1.46308 
0 0 -1.43375 -0.552817 0.0390494 -0.371606 -0.154894 0.298644 -0.420226 
0.0103772 0.642835 -0.502016 0.223267 -0.635169 -0.202574 0 0 -1.41021 
0 0 -1.40903 0.261868 0.107409 -0.292541 -0.0395144 0.594008 -0.0536324 
0 0 -1.40893 0 0 -1.40412 0 0 -1.40834 
0 0 -1.39932 0.168266 0.548963 0.00122637 0 0 -1.3538 
0 0 -1.3745 0 0 -1.36645 0 0 -1.36949 
0 0 -1.35076 0 0 -1.36194 0 0 -1.3742 
0 0 -1.36763 0 0 -1.35419 0 0 -1.32466 
0 0 -1.333 0 0 -1.34634 0 0 -1.29965 
0 0 -1.27031 0 0 -1.2713 0 0 -1.28277 
0 0 -1.28689 0 0 -1.2812 0 0 -1.25334 
0 0 -1.24187 0 0 -1.21459 0 0 -1.21469 
0 0 -1.22921 0 0 -1.20282 0 0 -1.1885 
0 0 -1.19331 0 0 -1.20214 0 0 -1.16908 
0 0 -1.17133 0 0 -1.16554 0 0 -1.17506 
0 0 -1.1473 0 0 -1.13327 0 0 -1.10453 
0 0 -1.09942 0 0 -1.11051 0 0 -1.09619 
0 0 -1.09128 0 0 -1.09629 0 0 -1.12228 
0 0 -1.10286 0 0 -1.07568 0 0 -1.08088 
0 0 -1.03733 0 0 -1.02752 0 0 -1.0386 
0 0 -1.05675 0 0 -1.05665 0 0 -1.01418 
0 0 -1.00378 0 -0 -1 0 -0 -1 
0 0 -1.01604 0 -0 -1 0 -0 -1 
0 -0 -1 0 -0 -1 0 -0 -1 
0 -0 -1 0 -0 -1 0 -0 -1 
0 -0 -1 0 -0 -1 0 -0 -1 
0 -0 -1 
f 3 181 double
0 0 -0.000346714 0 0 -0.000346714 0 0 -0.00160516 
0 0 -0.000346714 0 0 -0.000346714 0 0 -0.000346714 
0 0 -0.00160516 0 0 -0.000346714 0 0 -0.000346714 
0 0 -0.000346714 0 0 -0.000346714 0 0 -0.00160516 
0 0 -0.00160516 0 0 -0.000346714 0 0 -0.000346714 
0 0 -0.00160516 0 0 -0.00160516 0 0 -0.000346714 
0 0 -0.00160516 0 0 -0.00160516 0 0 -0.00160516 
0 0 -0.000346714 0 0 -0.000346714 0 0 -0.000346714 
0 0 -0.000346714 0 0 -0.00160516 0 0 -0.000346714 
0 0 -0.000346714 0 0 -0.00160516 0 0 -0.00160516 
0 0 -0.000346714 0 0 -0.000346714 0 0 -0.000346714 
0 0 -0.000346714 0 0 -0.00160516 0 0 -0.00160516 
0 0 -0.000346714 0 0 -0.000346714 0 0 -0.00160516 
0 0 -0.00160516 0 0 -0.000346714 0 0 -0.000346714 
0 0 -0.000346714 0 0 -0.000346714 0 0 -0.000346714 
0 0 -0.00160516 0 0 -0.000346714 0 0 -0.00160516 
0 0 -0.000346714 0 0 -0.000346714 0 0 -0.000346714 
0 0 -0.000346714 0 0 -0.00160516 0 0 -0.000346714 
0 0 -0.000346714 0 0 -0.000346714 0 0 -0.00160516 
0 0 -0.000346714 0 0 -0.000346714 0 0 -0.000346714 
0 0 -0.000346714 0 0 -0.000346714 0 0 -0.00160516 
0 0 -0.000346714 0 0 -0.000346714 0 0 -0.00160516 
0 0 -0.000346714 0 0 -0.000346714 0 0 -0.000346714 
0 0 -0.000346714 0 0 -0.000346714 0 0 -0.000346714 
0 0 -0.00160516 0 0 -0.000346714 0 0 -0.00160516 
0 0 -0.00160516 0 0 -0.000346714 0 0 -0.000346714 
0 0 -0.000346714 0 0 -0.00160516 0 0 -0.000346714 
0 0 -0.00160516 0 0 -0.000346714 -0.0926334 0.00125979 0.0459528 
0 0 -0.000346714 0 0 -0.000346714 0 0 -0.000346714 
0 0 -0.000346714 0 0 -0.000346714 0 0 -0.00160516 
0 0 -0.00160516 0 0 -0.000346714 0 0 -0.000346714 
0 0 -0.00160516 0.0131821 -0.0295892 -0.0976436 0 0 -0.000346714 
0 0 -0.00160516 0 0 -0.000346714 0 0 -0.000346714 
-0.0131821 0.0295892 0.0956917 0 0 -0.00160516 0 0 -0.00160516 
0 0 -0.000346714 0 0 -0.00160516 0 0 -0.00160516 
0 0 -0.000346714 0 0 -0.000346714 0 0 -0.000346714 
0 0 -0.000346714 0 0 -0.000346714 0 0 -0.000346714 
0 0 -0.000346714 0 0 -0.00160516 0 0 -0.00160516 
0 0 -0.000346714 0 0 -0.000346714 0 0 -0.000346714 
0 0 -0.000346714 0 0 -0.000346714 0 0 -0.000346714 
0 0 -0.00160516 0 0 -0.00160516 0 0 -0.00160516 
0 0 -0.000346714 0 0 -0.00160516 0 0 -0.00160516 
0 0 -0.000346714 0 0 -0.000346714 0 0 -0.000346714 
0 0 -0.000346714 0 0 -0.00160516 0 0 -0.00160516 
0 0 -0.000346714 0 0 -0.000346714 0 0 -0.000346714 
0 0 -0.00160516 0 0 -0.000346714 0 0 -0.000346714 
0 0 -0.00160516 0 0 -0.000346714 0 0 -0.00160516 
0 0 -0.00160516 0 0 -0.000346714 0 0 -0.000346714 
0 0 -0.000346714 0 0 -0.000346714 0 0 -0.00160516 
0 0 -0.000346714 0 0 -0.000346714 0 0 -0.000346714 
0 0 -0.00160516 0 0 -0.000346714 0 0 -0.00160516 
0 0 -0.00160516 0 0 -0.000346714 0 0 -0.000346714 
0 0 -0.00160516 0 0 -0.000346714 0 0 -0.000346714 
0 0 -0.000346714 0 0 -0.000346714 0 0 -0.000346714 
0 0 -0.00160516 0 0 -0.00160516 0 0 -0.000346714 
0 0 -0.00160516 0 0 0 0 0 0 
0 0 -0.000346714 0 0 0 0 0 0 
0 0 0 0 0 0 0 0 0 
0 0 0 0 0 0 0 0 0 
0 0 0 0 0 0 0 0 0 
0 0 0 
radius 1 181 double
0.0015 0.0015 0.0025 0.0015 0.0015 0.0015 0.0025 0.0015 0.0015 
0.0015 0.0015 0.0025 0.0025 0.0015 0.0015 0.0025 0.0025 0.0015 
0.0025 0.0025 0.0025 0.0015 0.0015 0.0015 0.0015 0.0025 0.0015 
0.0015 0.0025 0.0025 0.0015 0.0015 0.0015 0.0015 0.0025 0.0025 
0.0015 0.0015 0.0025 0.0025 0.0015 0.0015 0.0015 0.0015 0.0015 
0.0025 0.0015 0.0025 0.0015 0.0015 0.0015 0.0015 0.0025 0.0015 
0.0015 0.0015 0.0025 0.0015 0.0015 0.0015 0.0015 0.0015 0.0025 
0.0015 0.0015 0.0025 0.0015 0.0015 0.0015 0.0015 0.0015 0.0015 
0.0025 0.0015 0.0025 0.0025 0.0015 0.0015 0.0015 0.0025 0.0015 
0.0025 0.0015 0.0015 0.0015 0.0015 0.0015 0.0015 0.0015 0.0025 
0.0025 0.0015 0.0015 0.0025 0.0015 0.0015 0.0025 0.0015 0.0015 
0.0025 0.0025 0.0025 0.0015 0.0025 0.0025 0.0015 0.0015 0.0015 
0.0015 0.0015 0.0015 0.0015 0.0025 0.0025 0.0015 0.0015 0.0015 
0.0015 0.0015 0.0015 0.0025 0.0025 0.0025 0.0015 0.0025 0.0025 
0.0015 0.0015 0.0015 0.0015 0.0025 0.0025 0.0015 0.0015 0.0015 
0.0025 0.0015 0.0015 0.0025 0.0015 0.0025 0.0025 0.0015 0.0015 
0.0015 0.0015 0.0025 0.0015 0.0015 0.0015 0.0025 0.0015 0.0025 
0.0025 0.0015 0.0015 0.0025 0.0015 0.0015 0.0015 0.0015 0.0015 
0.0025 0.0025 0.0015 0.0025 0.0025 0.0025 0.0015 0.0015 0.0015 
0.0025 0.0015 0.0015 0.0025 0.0015 0.0015 0.0015 0.0015 0.0015 
0.0025 
omega 3 181 double
0 0 0 0 0 0 0 0 0 
0 0 0 0 0 0 0 0 0 
0 0 0 0 0 0 0 0 0 
0 0 0 0 0 0 0 0 0 
0 0 0 0 0 0 -211.517 -397.271 -7.935e-13 
0 0 0 0 0 0 0 0 0 
0 0 0 0 0 0 -27.7653 -52.1488 -1.05096e-13 
0 0 0 0 0 0 0 0 0 
0 0 0 0 0 0 0 0 0 
0 0 0 0 0 0 0 0 0 
-55.1594 -4.52985 11.7173 0 0 0 -70.1463 -50.0658 -95.4668 
0 0 0 0 0 0 0 0 0 
-201.092 -637.088 -95.4599 -148.517 458.394 -44.7727 0 0 0 
0 0 0 545.802 -79.0971 0.203169 0 0 0 
111.411 23.2398 0.000143032 0 0 0 0 0 0 
0 0 0 355.188 -130.679 11.7173 0 0 0 
0 0 0 0 0 0 385.333 -333.641 8.71277 
321.904 -600.462 33.7933 0 0 0 -657.527 -98.2738 10.8735 
-276.236 40.9548 -116.087 129.944 86.855 5.37048 0 0 0 
0 0 0 0 0 0 0 0 0 
0 0 0 0 0 0 0 0 0 
0 0 0 0 0 0 0 0 0 
0 0 0 -293.515 -211.554 110.664 0 0 0 
0 0 0 0 0 0 0 0 0 
10.7371 -147.803 6.391 0 0 0 0 0 0 
0 0 0 0 0 0 -190.488 17.6978 68.8687 
0 0 0 0 0 0 0 0 0 
0 0 0 -225.034 237.272 63.1378 48.1001 245.156 4.13366 
0 0 0 0 0 0 -365.621 340.958 -18.9864 
0 0 0 0 0 0 166.868 77.8466 15.8366 
0 0 0 -147.39 308.752 99.7166 -433.748 460.42 -1.11994e-14 
0 0 0 -121.019 50.2295 -102.081 0 0 0 
-46.2458 -77.7488 0.644114 0 0 0 0 0 0 
-20.9353 34.6395 -13.3709 -218.991 159.643 6.67417 0 0 0 
0 0 0 -14.2192 -217.796 4.25164 -116.455 -61.6529 -5.41447 
-486.838 6.91876 -0.202167 390.72 137.341 0.000274998 0 0 0 
0 0 0 -56.0446 154.247 -13.1581 -341.242 -18.1584 7.98195 
0 0 0 0 0 0 0 0 0 
0 0 0 -312.858 81.0804 -36.8573 0 0 0 
0 0 0 0 0 0 0 0 0 
0 0 0 0 0 0 0 0 0 
0 0 0 0 0 0 0 0 0 
0 0 0 0 0 0 0 0 0 
0 0 0 0 0 0 0 0 0 
0 0 0 0 0 0 0 0 0 
0 0 0 0 0 0 0 0 0 
0 0 0 0 0 0 0 0 0 
0 0 0 0 0 0 0 0 0 
0 0 0 0 0 0 0 0 0 
0 0 0 0 0 0 0 0 0 
0 0 0 0 0 0 0 0 0 
0 0 0 0 0 0 0 0 0 
0 0 0 0 0 0 0 0 0 
0 0 0 0 0 0 0 0 0 
0 0 0 0 0 0 0 0 0 
0 0 0 0 0 0 0 0 0 
0 0 0 0 0 0 0 0 0 
0 0 0 0 0 0 0 0 0 
0 0 0 0 0 0 0 0 0 
0 0 0 0 0 0 0 0 0 
0 0 0 
