# vtk DataFile Version 4.0
Generated by LIGGGHTS
ASCII
DATASET POLYDATA
POINTS 357 float
-0.0134616 -0.0465346 0.0815713 0.0156183 -0.0469602 0.0831793 0.0164348 -0.040676 0.0815349 
0.0181096 -0.0435589 0.0812072 -0.0178312 -0.0376431 0.0811093 0.00140514 -0.0387319 0.0815067 
0.0174602 -0.0376208 0.0815264 -0.0336199 -0.0332264 0.0811205 0.0154244 -0.0350869 0.0814619 
0.0265873 -0.0345241 0.0821212 -0.0244048 -0.0302358 0.0821183 -0.0168395 -0.0335778 0.0825856 
-0.0130821 -0.0287998 0.0811483 -0.0044744 -0.0333985 0.0811318 -0.0395885 -0.0282194 0.0811491 
-0.0198336 -0.0305284 0.0832431 -0.0160377 -0.0258695 0.081726 -0.00446933 -0.0306053 0.0825471 
0.0315622 -0.0286738 0.0824821 -0.00913971 -0.0259007 0.0822139 -0.00401001 -0.0198926 0.0812032 
-0.0251835 -0.0201914 0.0821185 -0.0169489 -0.0223893 0.0830919 -0.00719778 -0.0186599 0.0832764 
-0.019667 -0.014517 0.0811204 -0.00778001 -0.01379 0.0821183 0.0264398 -0.014464 0.0811185 
-0.0214491 -0.0123945 0.0823279 -0.0180917 -0.00705707 0.0811205 -0.0141758 -0.00773439 0.0811202 
-0.00885453 -0.00810345 0.0823727 -0.0472252 -0.0045741 0.0837637 -0.022471 -0.00468382 0.0815451 
-0.0139768 -0.00236092 0.0811123 0.00951172 -0.00233233 0.0814772 -0.0221019 -0.00165669 0.0812877 
0.0331249 0.0013665 0.0821183 -0.0343901 0.00321468 0.08119 -0.0243353 0.00379505 0.0811205 
-0.0191301 0.00436151 0.0821183 0.00749763 0.00591966 0.0818284 -0.0350827 0.00650913 0.0811205 
-0.00705017 0.00816695 0.0821183 0.0486498 0.00796054 0.0811205 -0.0413896 0.0121723 0.0813401 
-0.0380979 0.0090152 0.0821183 -0.0330987 0.00916914 0.0811443 -0.0261262 0.0120188 0.0811205 
0.0026783 0.0137508 0.0821183 -0.0322008 0.0182357 0.0821182 -0.0284716 0.0168205 0.0811211 
-0.0030174 0.0182582 0.0821183 -0.0427414 0.0209117 0.0821183 -0.0377226 0.0189585 0.0811205 
-0.0183063 0.0212182 0.0821187 -0.0301773 0.0259712 0.0821182 0.00379092 0.0248106 0.0823541 
0.00764174 0.0228666 0.0812156 -0.0385799 0.0295344 0.0821183 -0.0345581 0.0257184 0.0811324 
-0.0237285 0.0273089 0.0811205 -0.0173274 0.0276373 0.0818838 0.00617941 0.0300579 0.0835844 
0.0284385 0.0295445 0.0811205 -0.0353516 0.0329744 0.0811205 -0.0136421 0.0316856 0.0821219 
0.000115894 0.0316751 0.0830507 0.0146076 0.0307613 0.0811205 -0.0224299 0.0415268 0.0813034 
-0.00058425 0.043888 0.0820036 0.00929108 0.0419913 0.082133 -0.0100908 0.0467728 0.0811413 
0.00531061 0.045052 0.0820897 0.0144036 0.0448051 0.0822058 0.00262478 0.0488063 0.0811205 
0.0118691 -0.04569 0.083183 -0.0239787 -0.0403682 0.082115 -0.0194466 -0.0394739 0.0837855 
0.0135321 -0.0382242 0.0816915 0.0304182 -0.0354357 0.0825199 -0.000493978 -0.0302781 0.0864374 
0.0159716 -0.0293046 0.0875224 -0.0440312 -0.0200331 0.0829635 -0.00553281 -0.0209092 0.0862242 
0.00751027 -0.0185216 0.0850665 -0.0244557 -0.0117263 0.0849643 -0.00059333 -0.0153145 0.0861302 
-0.018677 -0.0107474 0.0840079 -0.023876 -0.00849512 0.0827304 -0.0160443 -0.0045109 0.0837488 
0.0316742 -0.00511725 0.0852858 -0.000895665 0.00554917 0.0855722 0.000983358 0.00630649 0.0832185 
0.0354526 0.00759726 0.0829123 -0.0470727 0.0120436 0.0831724 -0.00407975 0.0117719 0.0824889 
0.0421392 0.0103689 0.0821337 -0.0320158 0.0125634 0.0861016 -0.0387321 0.0169938 0.0854146 
-0.0172359 0.0173312 0.0839382 0.0383245 0.0177584 0.0837304 0.0194128 0.0178715 0.082566 
0.0280893 0.0208762 0.0826637 0.0350186 0.0220146 0.0880216 0.0239905 0.0252732 0.0839852 
0.0384433 0.0256414 0.0830935 -0.00242594 0.0291077 0.0860571 0.0364929 0.0292536 0.0831054 
-0.0195813 0.0312015 0.0848814 0.00168647 0.0288005 0.0881838 0.0185658 0.0341416 0.0854957 
0.0235823 0.0363391 0.0838535 0.0338103 0.0336716 0.0847458 -0.0284964 0.0387183 0.0828577 
0.000231333 0.03702 0.0824177 0.0115917 0.0406744 0.0853418 0.0167406 0.0404742 0.0833297 
-0.00553783 -0.0460349 0.0838058 -0.00241881 -0.0387977 0.0883675 -0.0232303 -0.0355368 0.0890153 
-0.0202381 -0.0341375 0.0857984 -0.0151174 -0.0158533 0.0858057 -0.0441763 -0.0184676 0.0879623 
-0.0379268 -0.016612 0.0911843 -0.010919 -0.0137979 0.0890774 0.0296544 -0.0168954 0.0871349 
-0.0309579 -0.00582035 0.0866144 -0.00890446 -0.00924678 0.0873734 0.0101502 0.00306888 0.0874858 
-0.0304378 0.00752722 0.0812491 -0.0327095 0.021875 0.0883465 -0.00552842 0.0269783 0.0898556 
0.012881 0.0259521 0.085633 -0.0126334 0.0345703 0.0889397 -0.00749072 0.0475546 0.086517 
0.00870503 0.0477593 0.0845255 -0.0158798 -0.039925 0.0937873 0.0215255 -0.0412337 0.0823958 
0.00957811 -0.034845 0.0910484 0.0120073 -0.0233996 0.0878341 0.0353031 -0.0163802 0.0892035 
0.0323167 -0.0184466 0.0898988 -0.0197199 -0.0100262 0.089322 -0.0396445 -0.00846758 0.087179 
0.0273241 -0.00634716 0.0905265 -0.0284433 -0.00310781 0.0892754 -0.00955758 -0.00196 0.0824363 
0.0439135 -0.00415119 0.0898986 0.0474913 0.00454911 0.0906887 -0.047144 0.00694765 0.0842052 
-0.0283497 0.00874613 0.092102 -0.0311675 0.016831 0.0901897 0.00943715 0.0193748 0.0877686 
-0.00809063 0.0236033 0.0811486 0.006248 0.0315313 0.0939535 0.0143401 0.0311741 0.089046 
0.03427 0.0292164 0.0902043 -0.00596989 0.0331245 0.0916883 -0.010326 0.0457895 0.0892795 
-0.0291959 -0.0382407 0.0819461 0.0114037 -0.0394429 0.0946744 0.00950334 -0.0346704 0.0964028 
-0.015717 -0.0304011 0.0894631 0.00582446 -0.0167578 0.0979329 -0.0310931 -0.013801 0.0912631 
-0.00827141 -0.0127553 0.0919916 -0.0238445 0.0127131 0.0956686 0.0381312 0.00950164 0.0971292 
-0.0464358 0.0145379 0.0898672 -0.018777 0.0146392 0.0943932 0.0457701 0.0139623 0.0937821 
0.0324548 0.0173298 0.0929943 -0.0222177 0.022844 0.091692 -0.0180899 0.0269899 0.0968916 
0.00859457 0.0298602 0.0878669 -0.0115454 0.0399167 0.0937913 0.00723315 0.0469643 0.0932982 
-0.00676178 -0.041834 0.096117 -0.000776551 -0.034585 0.0926621 -0.0211319 -0.0336081 0.0944087 
0.0131548 -0.0330912 0.0975672 0.0319689 -0.0241855 0.0980098 0.0120994 -0.0186654 0.0888143 
0.0352632 -0.0214839 0.0900938 0.0274407 -0.0177667 0.0966561 0.0387721 -0.0160667 0.0975785 
-0.032703 -0.0129074 0.0940226 -0.0477553 0.00164198 0.0913889 0.0328257 0.0134196 0.099842 
0.03822 0.0130581 0.100139 -0.00461067 0.0201597 0.0999451 0.017494 0.0195812 0.0995162 
0.0300866 0.0304163 0.0963953 0.0262197 0.0338431 0.100208 0.0331161 0.0351511 0.0994994 
0.00380483 0.0375629 0.0991277 -0.026152 -0.0325683 0.096114 -0.0358484 -0.0070572 0.0956953 
-0.0134176 0.0265745 0.101131 -0.00497562 0.0423975 0.0959789 -0.00142443 -0.0325286 0.0967958 
0.0328269 -0.028819 0.104174 -0.0338384 0.0179621 0.094029 0.0381509 0.0211975 0.0931937 
0.0229839 -0.0292469 0.104402 -0.0476187 -0.00890862 0.110597 0.0225462 0.0261161 0.099845 
0.000701606 -0.0417813 0.103279 -0.0484345 0.00265088 0.115257 0.0318289 0.0155926 0.106901 
0.00478836 -0.0368901 0.114242 0.0340005 -0.0274077 0.111169 -0.0275157 -0.0251826 0.117745 
-0.00637466 -0.00633577 0.116384 -0.00046866 0.00191015 0.113005 -0.00389534 0.0123193 0.112696 
-0.0256308 -0.0421833 0.117473 -0.00894901 -0.039404 0.121356 0.0127878 -0.0291644 0.117024 
-0.0459452 0.0138358 0.124008 0.0169415 -0.0377695 0.12575 -0.0383407 -0.0232859 0.120845 
0.0344393 0.0151131 0.126943 -0.0150722 0.0359996 0.123962 0.0198366 -0.0307221 0.127015 
0.0328632 0.0232411 0.126873 0.0100686 0.0365146 0.129407 -0.0122128 0.0410633 0.126435 
-0.00585506 0.0443711 0.125377 0.00933634 -0.0353461 0.134908 0.0254207 -0.0360626 0.127772 
0.0364039 0.00934801 0.131221 -0.00668483 0.0382707 0.129623 -0.0165751 -0.038712 0.133462 
-0.0267265 0.0128808 0.133256 -0.011216 0.0263764 0.133361 0.00230119 -0.0336949 0.138363 
-0.0117124 0.00062718 0.136706 -0.00648554 -0.0313558 0.140755 -0.00648953 -0.0220096 0.140988 
0.000838145 0.0199605 0.145174 -0.00446411 0.0246416 0.146262 0.0191889 0.0325979 0.148305 
-0.00181526 0.0444847 0.146462 -0.0357417 -0.021022 0.151579 -0.010498 -0.00824865 0.150904 
-0.00665319 0.00840212 0.152278 0.0396218 0.0217103 0.156368 0.000509045 0.0395286 0.15107 
-0.00496758 -0.0378971 0.159512 -0.0249415 -0.017717 0.153394 0.0357618 0.0228648 0.155285 
0.0192494 -0.0447807 0.166965 -0.0190837 -0.0385507 0.159144 -0.0176693 -0.0113834 0.158865 
-0.0199926 -0.0071486 0.161352 -0.027432 0.00322227 0.163176 -0.0141744 0.0468052 0.169209 
-0.017574 -0.0132037 0.167342 -0.0424457 -0.000150892 0.166476 0.0426879 0.0134877 0.164539 
0.0449971 0.0156422 0.171728 0.010294 0.0463959 0.173284 -0.0274258 -0.0349825 0.169205 
-0.012655 -0.0121901 0.16849 -0.00154237 -0.00647016 0.168495 0.0136003 -0.0252707 0.172293 
0.0298504 -0.0251655 0.17353 -0.0294183 -0.0211963 0.172278 -0.0213877 -0.0226463 0.173935 
0.041375 -0.014412 0.179821 -0.0116067 0.0342706 0.17325 -0.021474 -0.0368448 0.17662 
-0.0194592 0.0233388 0.177649 -0.000740023 -0.0360659 0.180233 0.0367439 -0.0271886 0.185283 
0.000861536 -0.00913537 0.179209 0.0279594 -0.0239215 0.186868 -0.0314586 -0.0131475 0.183292 
0.0207493 0.0245578 0.18394 0.00275579 -0.0260837 0.18743 0.0402762 -0.0163751 0.187216 
-0.0428708 -0.011805 0.188483 -0.0104751 0.0201344 0.187841 -0.00997197 0.0302713 0.189453 
-0.0120979 -0.0281602 0.190745 -0.0123717 -0.0198646 0.191434 0.0126725 -0.0176709 0.195868 
0.0425117 -0.0144958 0.190887 0.0419164 0.00541646 0.197175 -0.0262528 0.0167369 0.192784 
0.0255479 0.0198549 0.194256 0.0438814 0.0195167 0.196356 0.0114178 -0.033482 0.200406 
0.0141318 -0.0363161 0.198432 -0.0324409 -0.00912026 0.198707 0.0108589 -0.0069863 0.205547 
0.0413691 -0.00199891 0.199544 -0.0193866 -0.0345939 0.201363 -0.0325525 -0.0276598 0.203717 
-0.0104894 0.0181699 0.202963 -0.0332879 -0.0233031 0.205463 0.0131963 0.0147036 0.204712 
0.00543924 -0.0314838 0.208825 0.0327504 0.00114017 0.211472 0.0165558 0.0211279 0.20789 
-0.026454 -0.0245447 0.213902 0.0115408 0.00544019 0.214181 -0.0246293 0.0182181 0.211688 
-0.0271281 0.000814539 0.218179 0.0248908 0.00240314 0.217424 0.0422706 0.00333544 0.218719 
-0.0185276 0.00882339 0.2179 0.0106892 0.0159746 0.215931 0.000721647 0.0249688 0.220647 
-0.0184277 0.0295787 0.220415 0.00761906 -0.0184204 0.223742 0.0274742 -0.00162992 0.224515 
0.00888258 0.0172116 0.22602 -0.0138045 0.027268 0.22477 -0.0182303 -0.0172101 0.229628 
-0.0365539 -0.00567484 0.227384 0.00245286 -0.00835986 0.229134 -0.0341341 0.0119744 0.228431 
0.0247417 0.0153298 0.229057 0.0123061 0.0292579 0.229397 0.0170816 0.0409748 0.227193 
0.012656 -0.0227418 0.230545 -0.0239118 0.0115143 0.233457 -0.0289214 -0.0224315 0.235041 
0.0164489 -0.00414888 0.236618 0.0362853 -0.000801686 0.233741 -0.0228705 -0.0279163 0.240396 
-0.0366668 -0.00275727 0.238625 -0.0125232 -0.00201753 0.239582 0.000876286 -0.00502923 0.240872 
-0.0273586 0.0110109 0.238947 0.0320668 0.018251 0.237626 -0.0181314 -0.0365099 0.243493 
0.0372241 -0.00496006 0.243549 0.00410244 0.0371437 0.244319 0.0419989 -0.00433891 0.246303 
-0.00309695 -0.00137909 0.246602 0.00692388 0.00214792 0.247123 0.0112996 0.0341587 0.244951 
-0.037247 -0.0235961 0.249623 0.0307308 -0.0139734 0.249121 -0.0228464 -0.00559641 0.251836 
-0.0348257 -0.00483668 0.248943 0.0391874 0.00736359 0.251503 0.0074274 0.0100411 0.251676 
-0.0124228 0.0359989 0.249234 0.00330523 -0.0250089 0.255112 0.0133705 -0.0223305 0.253016 
0.00764154 0.00455319 0.254315 0.00296838 0.00822408 0.256596 0.030464 0.0068227 0.256346 

VERTICES 357 714
1 0 
1 1 
1 2 
1 3 
1 4 
1 5 
1 6 
1 7 
1 8 
1 9 
1 10 
1 11 
1 12 
1 13 
1 14 
1 15 
1 16 
1 17 
1 18 
1 19 
1 20 
1 21 
1 22 
1 23 
1 24 
1 25 
1 26 
1 27 
1 28 
1 29 
1 30 
1 31 
1 32 
1 33 
1 34 
1 35 
1 36 
1 37 
1 38 
1 39 
1 40 
1 41 
1 42 
1 43 
1 44 
1 45 
1 46 
1 47 
1 48 
1 49 
1 50 
1 51 
1 52 
1 53 
1 54 
1 55 
1 56 
1 57 
1 58 
1 59 
1 60 
1 61 
1 62 
1 63 
1 64 
1 65 
1 66 
1 67 
1 68 
1 69 
1 70 
1 71 
1 72 
1 73 
1 74 
1 75 
1 76 
1 77 
1 78 
1 79 
1 80 
1 81 
1 82 
1 83 
1 84 
1 85 
1 86 
1 87 
1 88 
1 89 
1 90 
1 91 
1 92 
1 93 
1 94 
1 95 
1 96 
1 97 
1 98 
1 99 
1 100 
1 101 
1 102 
1 103 
1 104 
1 105 
1 106 
1 107 
1 108 
1 109 
1 110 
1 111 
1 112 
1 113 
1 114 
1 115 
1 116 
1 117 
1 118 
1 119 
1 120 
1 121 
1 122 
1 123 
1 124 
1 125 
1 126 
1 127 
1 128 
1 129 
1 130 
1 131 
1 132 
1 133 
1 134 
1 135 
1 136 
1 137 
1 138 
1 139 
1 140 
1 141 
1 142 
1 143 
1 144 
1 145 
1 146 
1 147 
1 148 
1 149 
1 150 
1 151 
1 152 
1 153 
1 154 
1 155 
1 156 
1 157 
1 158 
1 159 
1 160 
1 161 
1 162 
1 163 
1 164 
1 165 
1 166 
1 167 
1 168 
1 169 
1 170 
1 171 
1 172 
1 173 
1 174 
1 175 
1 176 
1 177 
1 178 
1 179 
1 180 
1 181 
1 182 
1 183 
1 184 
1 185 
1 186 
1 187 
1 188 
1 189 
1 190 
1 191 
1 192 
1 193 
1 194 
1 195 
1 196 
1 197 
1 198 
1 199 
1 200 
1 201 
1 202 
1 203 
1 204 
1 205 
1 206 
1 207 
1 208 
1 209 
1 210 
1 211 
1 212 
1 213 
1 214 
1 215 
1 216 
1 217 
1 218 
1 219 
1 220 
1 221 
1 222 
1 223 
1 224 
1 225 
1 226 
1 227 
1 228 
1 229 
1 230 
1 231 
1 232 
1 233 
1 234 
1 235 
1 236 
1 237 
1 238 
1 239 
1 240 
1 241 
1 242 
1 243 
1 244 
1 245 
1 246 
1 247 
1 248 
1 249 
1 250 
1 251 
1 252 
1 253 
1 254 
1 255 
1 256 
1 257 
1 258 
1 259 
1 260 
1 261 
1 262 
1 263 
1 264 
1 265 
1 266 
1 267 
1 268 
1 269 
1 270 
1 271 
1 272 
1 273 
1 274 
1 275 
1 276 
1 277 
1 278 
1 279 
1 280 
1 281 
1 282 
1 283 
1 284 
1 285 
1 286 
1 287 
1 288 
1 289 
1 290 
1 291 
1 292 
1 293 
1 294 
1 295 
1 296 
1 297 
1 298 
1 299 
1 300 
1 301 
1 302 
1 303 
1 304 
1 305 
1 306 
1 307 
1 308 
1 309 
1 310 
1 311 
1 312 
1 313 
1 314 
1 315 
1 316 
1 317 
1 318 
1 319 
1 320 
1 321 
1 322 
1 323 
1 324 
1 325 
1 326 
1 327 
1 328 
1 329 
1 330 
1 331 
1 332 
1 333 
1 334 
1 335 
1 336 
1 337 
1 338 
1 339 
1 340 
1 341 
1 342 
1 343 
1 344 
1 345 
1 346 
1 347 
1 348 
1 349 
1 350 
1 351 
1 352 
1 353 
1 354 
1 355 
1 356 

POINT_DATA 357
FIELD FieldData 7
id 1 357 int
11 187 19 18 48 44 46 58 90 
92 94 119 24 59 77 191 39 161 
80 202 204 4 21 193 62 30 72 
12 70 45 55 185 49 111 122 154 
14 9 22 53 35 36 28 82 61 
1 57 20 40 107 125 3 29 85 
5 17 167 71 41 83 8 25 206 
26 47 118 127 60 135 152 31 123 
52 16 56 207 2 199 50 110 173 
184 134 33 93 149 64 138 65 54 
192 188 102 179 144 112 145 176 79 
150 143 131 23 201 200 42 196 101 
68 97 198 99 37 121 104 129 27 
51 67 178 164 195 38 183 189 43 
15 153 175 126 148 190 73 66 136 
81 171 208 182 76 86 74 32 168 
69 89 214 13 10 197 146 159 106 
212 181 91 78 177 170 211 87 166 
6 163 88 84 108 160 105 139 130 
158 120 34 194 133 7 96 100 113 
137 98 109 216 95 128 115 156 205 
75 141 155 103 142 186 147 132 215 
117 116 213 63 210 219 140 218 226 
220 209 227 124 221 169 222 230 224 
180 151 237 225 157 233 174 235 240 
234 114 243 244 228 238 241 242 253 
236 232 252 247 250 249 254 245 246 
251 259 263 257 162 248 172 264 265 
239 262 266 165 268 217 260 261 267 
255 231 269 275 280 272 279 274 271 
229 281 278 270 273 203 276 277 286 
282 293 289 294 292 285 290 287 291 
288 223 283 284 256 300 303 304 258 
305 299 297 298 306 302 296 312 301 
310 311 295 314 318 315 309 307 313 
317 316 324 321 308 331 330 323 322 
326 320 328 319 325 329 343 327 338 
341 333 337 335 339 342 332 340 334 
336 357 344 352 353 351 356 348 354 
349 345 346 355 347 350 
type 1 357 int
1 1 1 1 1 1 1 1 1 
1 1 1 1 1 1 1 1 1 
1 1 1 1 1 1 1 1 1 
1 1 1 1 1 1 1 1 1 
1 1 1 1 1 1 1 1 1 
1 1 1 1 1 1 1 1 1 
1 1 1 1 1 1 1 1 1 
1 1 1 1 1 1 1 1 1 
1 1 1 1 1 1 1 1 1 
1 1 1 1 1 1 1 1 1 
1 1 1 1 1 1 1 1 1 
1 1 1 1 1 1 1 1 1 
1 1 1 1 1 1 1 1 1 
1 1 1 1 1 1 1 1 1 
1 1 1 1 1 1 1 1 1 
1 1 1 1 1 1 1 1 1 
1 1 1 1 1 1 1 1 1 
1 1 1 1 1 1 1 1 1 
1 1 1 1 1 1 1 1 1 
1 1 1 1 1 1 1 1 1 
1 1 1 1 1 1 1 1 1 
1 1 1 1 1 1 1 1 1 
1 1 1 1 1 1 1 1 1 
1 1 1 1 1 1 1 1 1 
1 1 1 1 1 1 1 1 1 
1 1 1 1 1 1 1 1 1 
1 1 1 1 1 1 1 1 1 
1 1 1 1 1 1 1 1 1 
1 1 1 1 1 1 1 1 1 
1 1 1 1 1 1 1 1 1 
1 1 1 1 1 1 1 1 1 
1 1 1 1 1 1 1 1 1 
1 1 1 1 1 1 1 1 1 
1 1 1 1 1 1 1 1 1 
1 1 1 1 1 1 1 1 1 
1 1 1 1 1 1 1 1 1 
1 1 1 1 1 1 1 1 1 
1 1 1 1 1 1 1 1 1 
1 1 1 1 1 1 1 1 1 
1 1 1 1 1 1 
i 3 357 int
0 0 0 0 0 0 0 0 0 
0 0 0 0 0 0 0 0 0 
0 0 0 0 0 0 0 0 0 
0 0 0 0 0 0 0 0 0 
0 0 0 0 0 0 0 0 0 
0 0 0 0 0 0 0 0 0 
0 0 0 0 0 0 0 0 0 
0 0 0 0 0 0 0 0 0 
0 0 0 0 0 0 0 0 0 
0 0 0 0 0 0 0 0 0 
0 0 0 0 0 0 0 0 0 
0 0 0 0 0 0 0 0 0 
0 0 0 0 0 0 0 0 0 
0 0 0 0 0 0 0 0 0 
0 0 0 0 0 0 0 0 0 
0 0 0 0 0 0 0 0 0 
0 0 0 0 0 0 0 0 0 
0 0 0 0 0 0 0 0 0 
0 0 0 0 0 0 0 0 0 
0 0 0 0 0 0 0 0 0 
0 0 0 0 0 0 0 0 0 
0 0 0 0 0 0 0 0 0 
0 0 0 0 0 0 0 0 0 
0 0 0 0 0 0 0 0 0 
0 0 0 0 0 0 0 0 0 
0 0 0 0 0 0 0 0 0 
0 0 0 0 0 0 0 0 0 
0 0 0 0 0 0 0 0 0 
0 0 0 0 0 0 0 0 0 
0 0 0 0 0 0 0 0 0 
0 0 0 0 0 0 0 0 0 
0 0 0 0 0 0 0 0 0 
0 0 0 0 0 0 0 0 0 
0 0 0 0 0 0 0 0 0 
0 0 0 0 0 0 0 0 0 
0 0 0 0 0 0 0 0 0 
0 0 0 0 0 0 0 0 0 
0 0 0 0 0 0 0 0 0 
0 0 0 0 0 0 0 0 0 
0 0 0 0 0 0 0 0 0 
0 0 0 0 0 0 0 0 0 
0 0 0 0 0 0 0 0 0 
0 0 0 0 0 0 0 0 0 
0 0 0 0 0 0 0 0 0 
0 0 0 0 0 0 0 0 0 
0 0 0 0 0 0 0 0 0 
0 0 0 0 0 0 0 0 0 
0 0 0 0 0 0 0 0 0 
0 0 0 0 0 0 0 0 0 
0 0 0 0 0 0 0 0 0 
0 0 0 0 0 0 0 0 0 
0 0 0 0 0 0 0 0 0 
0 0 0 0 0 0 0 0 0 
0 0 0 0 0 0 0 0 0 
0 0 0 0 0 0 0 0 0 
0 0 0 0 0 0 0 0 0 
0 0 0 0 0 0 0 0 0 
0 0 0 0 0 0 0 0 0 
0 0 0 0 0 0 0 0 0 
0 0 0 0 0 0 0 0 0 
0 0 0 0 0 0 0 0 0 
0 0 0 0 0 0 0 0 0 
0 0 0 0 0 0 0 0 0 
0 0 0 0 0 0 0 0 0 
0 0 0 0 0 0 0 0 0 
0 0 0 0 0 0 0 0 0 
0 0 0 0 0 0 0 0 0 
0 0 0 0 0 0 0 0 0 
0 0 0 0 0 0 0 0 0 
0 0 0 0 0 0 0 0 0 
0 0 0 0 0 0 0 0 0 
0 0 0 0 0 0 0 0 0 
0 0 0 0 0 0 0 0 0 
0 0 0 0 0 0 0 0 0 
0 0 0 0 0 0 0 0 0 
0 0 0 0 0 0 0 0 0 
0 0 0 0 0 0 0 0 0 
0 0 0 0 0 0 0 0 0 
0 0 0 0 0 0 0 0 0 
0 0 0 0 0 0 0 0 0 
0 0 0 0 0 0 0 0 0 
0 0 0 0 0 0 0 0 0 
0 0 0 0 0 0 0 0 0 
0 0 0 0 0 0 0 0 0 
0 0 0 0 0 0 0 0 0 
0 0 0 0 0 0 0 0 0 
0 0 0 0 0 0 0 0 0 
0 0 0 0 0 0 0 0 0 
0 0 0 0 0 0 0 0 0 
0 0 0 0 0 0 0 0 0 
0 0 0 0 0 0 0 0 0 
0 0 0 0 0 0 0 0 0 
0 0 0 0 0 0 0 0 0 
0 0 0 0 0 0 0 0 0 
0 0 0 0 0 0 0 0 0 
0 0 0 0 0 0 0 0 0 
0 0 0 0 0 0 0 0 0 
0 0 0 0 0 0 0 0 0 
0 0 0 0 0 0 0 0 0 
0 0 0 0 0 0 0 0 0 
0 0 0 0 0 0 0 0 0 
0 0 0 0 0 0 0 0 0 
0 0 0 0 0 0 0 0 0 
0 0 0 0 0 0 0 0 0 
0 0 0 0 0 0 0 0 0 
0 0 0 0 0 0 0 0 0 
0 0 0 0 0 0 0 0 0 
0 0 0 0 0 0 0 0 0 
0 0 0 0 0 0 0 0 0 
0 0 0 0 0 0 0 0 0 
0 0 0 0 0 0 0 0 0 
0 0 0 0 0 0 0 0 0 
0 0 0 0 0 0 0 0 0 
0 0 0 0 0 0 0 0 0 
0 0 0 0 0 0 0 0 0 
0 0 0 0 0 0 0 0 0 
0 0 0 0 0 0 0 0 0 
0 0 0 0 0 0 0 0 0 
0 0 0 0 0 0 0 0 0 

v 3 357 double
-0.0525306 0.0311948 0.0802526 0.0139282 -0.112718 0.283004 0.0484562 0.0696881 -0.0296483 
0.0416957 -0.086814 0.0767477 0.0939202 -0.0162842 0.0228423 0.259032 -0.0279344 0.0110724 
-0.0857959 0.0687846 0.230121 0.0379176 0.022046 1.65493e-06 -0.077088 0.304121 0.0727859 
0.179135 -0.00998667 -0.0298886 0.059637 0.0546348 -3.19402e-11 -0.0982101 -0.120056 -0.000254724 
-0.40473 0.265714 0.00918022 0.0253628 -0.164769 -0.0147183 -0.131831 -0.048618 0.0371637 
-0.0307988 -0.289131 0.19235 -0.0176415 0.233441 0.00276384 0.119171 -0.17809 0.125602 
-0.00988399 0.134721 0.0354068 0.522569 0.069784 0.18873 0.130866 0.647965 0.0692502 
0.0376188 -0.023729 -0.00376231 -0.0990431 -0.286647 0.485875 -0.140629 -0.0712325 0.256125 
0.138079 -0.0926554 0.000558646 0.018043 0.0565846 2.34634e-05 0.352415 -0.0721874 0.00452518 
0.106291 -0.104055 -0.044365 0.0050479 -0.00088088 3.56041e-08 0.0167591 -0.0136048 -0.0073761 
-0.0296582 -0.223227 0.0815225 0.116715 -0.434211 0.235444 0.0381561 -0.153291 0.0110176 
-0.172296 0.0251461 -0.0421073 0.0886309 0.0569785 0.0335545 -0.0429846 -0.267499 -0.0276883 
0.115639 -0.0346894 -8.21505e-10 0.00970159 -0.0778638 -0.0251859 -0.012775 -0.0111176 1.03697e-13 
-0.137919 0.0722556 5.00457e-13 0.239379 0.423607 -0.0976368 0.0116336 -0.0322241 -1.02452e-06 
-0.0182811 0.0275118 4.36676e-08 0.0308077 -0.0913059 -4.65202e-13 0.23358 0.190769 -0.00739756 
-0.0513925 -0.0875224 -1.53807e-05 0.022089 -0.0546129 0.0441408 -0.10798 -0.0452509 -8.59372e-14 
0.0298213 0.0184753 2.54533e-10 -0.0321592 -0.0328872 0.000177378 -0.00833729 -0.0319432 -0.00126642 
0.00396184 -0.153981 2.37044e-13 -0.00213382 -0.0661129 -1.1374e-09 -0.188578 -0.177016 1.58744e-12 
0.054279 0.00694115 -0.00232991 -0.116325 0.141943 0.000496541 0.212376 -0.0242163 0.266038 
-0.0147241 -0.00138228 0.000601562 -0.138103 0.0255833 -2.0472e-08 -0.180088 -0.203927 -0.00997203 
0.165893 -0.0389611 3.107e-10 -0.0734559 -0.0731676 -0.0171577 0.26575 0.285807 0.48213 
-0.157745 0.11768 2.30088e-13 -0.00935961 0.00825275 2.37013e-09 -0.0739834 -0.0384899 0.013658 
0.0886045 -0.104707 0.209408 0.130498 -0.0883314 5.07175e-08 0.221622 0.0360961 -0.19066 
0.0524243 0.345963 0.10564 0.0109744 0.0336559 0.00857571 -0.0205757 -0.0455494 -0.0138489 
0.00522798 -0.00994684 0.0259984 0.0923644 0.0339057 -0.0100224 -0.000861236 -0.0201432 7.63377e-10 
-0.348111 -0.176851 -0.015918 -0.102149 -0.0858492 0.060794 -0.147336 -0.367234 -0.132589 
-0.0360916 -0.127802 -0.36556 0.248066 -0.00722473 -0.31757 -0.454544 -0.0268729 0.313157 
0.200983 0.0118823 0.365476 0.0543247 -0.0232447 -0.062786 -0.132394 0.0960275 0.185387 
0.202658 0.187276 0.0336642 -0.152776 0.0290668 -0.0220381 0.0786962 0.0398619 0.301936 
0.116473 -0.157793 0.021352 -0.0250758 -0.173467 -0.0406301 -0.0419074 -0.00777552 0.0104778 
-0.398668 -0.456284 0.285179 0.292437 0.39203 0.265694 -0.500946 -0.237575 0.0274559 
-0.312572 0.167379 -0.246392 0.068054 0.267879 0.0881727 0.00011726 -0.0222427 -0.0642116 
-0.0854817 0.254699 0.0519925 -0.334033 -0.289921 0.0552593 0.224554 0.129065 0.129836 
-0.228593 -0.00797132 -0.247759 -0.0235399 -0.0959699 -0.34886 0.00144814 -0.24775 0.210025 
0 0 -0.0506824 0 0 0.489023 0 0 0.565029 
-0.0731136 -0.0821396 -0.0651864 -0.0706408 0.0326694 0.499745 -0.0910303 -0.0847139 -0.0851318 
-0.274267 -0.0746443 -0.154483 0.225448 -0.459575 0.497911 0.191358 0.209928 -0.0132032 
0.0582927 0.0356645 0.166229 -0.0945652 -0.0123925 -0.0849149 0.0988726 -0.0450731 -0.0946324 
0.212087 -0.412656 0.170297 -0.15646 -0.319331 0.149542 0.0130708 -0.0063724 0.0894549 
-0.100178 0.0778283 -0.472626 -0.184591 0.0211312 0.0373183 0.188407 -0.527667 0.351592 
0.237167 -0.146698 -0.225838 0.169266 0.780621 0.379934 0.145226 -0.196006 -0.0295266 
0 0 0.449584 -0.0399817 0.346199 0.287115 -0.17029 -0.11275 -0.0422824 
0.20184 -0.0897827 -0.121984 -0.0510707 -0.292749 -0.0152784 0.402581 -0.267112 0.10964 
0.354005 -0.0719625 -0.756399 0.139395 0.440889 -0.0398791 0 0 0.450745 
-0.317313 -0.194025 -0.401401 -0.0296962 -0.205676 0.0263213 0.111106 -0.0163907 -0.465199 
0.196696 0.0775131 -0.24331 0 0 0.388696 0.630189 -0.493754 0.305978 
0.287057 -0.473406 0.103037 0 0 -0.49417 0.0578253 0.126476 -0.134475 
-0.343854 0.153628 -0.651777 0.258176 0.0676147 -0.222246 0.207333 -0.00506136 -0.850449 
-0.170555 -0.0422349 -0.0464386 -0.0466183 0.113419 -0.411181 -0.110257 0.705287 -0.645767 
-0.0497659 0.0488521 -0.155664 -0.0706073 -0.0130877 -0.00896217 0.0308868 0.0285828 -1.40206 
-0.244623 -0.106963 0.0301577 0.163971 -0.0203205 -1.19996 0.0443562 -0.175106 -0.358233 
0 0 0.611509 0 0 0.350171 -0.405954 0.0564992 -0.0742485 
0.0370144 -0.161992 -0.295946 0.105984 -0.176042 0.189622 -0.0387518 -0.0191663 -0.378252 
-0.115667 -0.0544519 -1.46481 0 0 -0.329105 0 0 0.272733 
-0.0647684 -0.484578 -0.728823 0 0 0.211513 0.217592 -0.204469 -0.81162 
0 0 -0.403132 0.227779 0.292222 -0.0429882 -0.00897541 -0.10373 0.0853523 
0.107416 0.0681035 -0.972242 0.654485 0.00823951 -0.14988 0.301684 -0.0144527 -0.288912 
-0.179628 0.100412 -0.129497 -0.206555 0.0460899 -0.274092 -0.21416 -0.449296 0.202969 
0.480857 0.462204 -1.22009 0.138059 -0.290663 -0.334417 -0.067 -0.0920303 -0.207513 
0 0 -0.28309 0.0643485 -0.204246 -1.35421 0.368202 -0.0882719 -0.638769 
-0.188623 0.0131908 0.0468598 0 0 -0.208657 -0.159078 0.255691 -1.57596 
0.0775308 -0.430759 -1.22658 0 0 -0.263621 0.15605 0.179593 -0.376929 
-0.0030535 -0.173876 -0.665422 0.0981647 -0.131297 -1.04092 -0.438306 -0.029712 0.0810944 
-0.134906 0.0268493 0.129602 0 0 0.0725373 0 0 0.115624 
0 0 -0.275557 0 0 0.00594358 -0.351739 0.258895 0.0794819 
-0.265041 -0.233857 0.0535022 0.17148 -0.0142688 -0.679275 -0.214539 0.378346 -1.08115 
0 0 -0.0842548 0.262337 -0.0938283 -0.744272 -0.0643485 0.204246 -0.94763 
0.0654727 0.256069 -0.141919 -0.406618 0.178169 -1.02128 0 0 -2.02578 
-0.210456 -0.0376268 -1.27388 0.210053 -0.0223052 -0.509238 0 0 -1.99331 
0 0 -1.97634 0.196851 0.0147314 -0.46196 0 0 -1.95829 
-0.231475 0.0611288 -1.20064 0 0 -1.93681 -0.0584524 -0.340155 -0.701633 
0.336712 -0.141054 -1.32288 0 0 -1.92749 0 0 -1.92906 
-0.374143 -0.356237 -1.36287 0.154288 -0.111742 -1.35858 0 0 -1.90689 
-0.745414 0.463954 -0.774502 -0.156742 0.00301444 -1.22076 0 0 -1.88717 
-0.191606 0.0306842 -1.08828 0 0 -1.87088 0 0 -1.85479 
-0.0451526 0.00674414 -1.82358 -0.228466 -0.0203282 -1.14259 0 0 -1.85784 
0 0 -1.86343 -0.403007 0.0837606 -1.01276 0 0 -1.85077 
0 0 -1.83243 0 0 -1.84096 0 0 -1.82036 
-0.181398 0.569798 -0.983906 0 0 -1.82095 0 0 -1.79378 
0.109315 -0.00195861 -1.30239 0 0 -1.78063 0 0 -1.77936 
0 0 -1.75611 0 0 -1.75002 0 0 -1.73855 
0 0 -1.74894 0 0 -1.72 0 0 -1.72383 
0 0 -1.71598 0.0304269 -0.0274043 -1.02336 0 0 -1.72285 
-0.196465 -0.321643 -0.970051 0 0 -1.70961 0 0 -1.69872 
-0.238418 0.0967273 -0.484102 0 0 -1.67625 0 0 -1.67792 
-0.317545 -0.0640633 -0.957552 0 0 -1.65251 -0.144239 -0.224246 -0.46235 
0 0 -1.62759 0 0 -1.63279 0 0 -1.64437 
-0.181513 0.0431794 -0.540608 -0.252016 -0.122261 -0.465089 0 0 -1.61631 
0 0 -1.62063 0 0 -1.62063 0 0 -1.59748 
0 0 -1.58983 0 0 -1.59758 0 0 -1.58737 
-0.221256 -0.0350705 -0.502749 0 0 -1.59159 0 0 -1.5707 
0 0 -1.56422 0 0 -1.54794 0.162106 -0.280841 -0.67109 
0 0 -1.55441 0.185263 -0.527043 -0.818191 0 0 -1.52842 
0 0 -1.5243 0 0 -1.50163 0 0 -1.50301 
0 0 -1.49477 0 0 -1.49899 0 0 -1.48839 
0 0 -1.47986 0 0 -1.47525 -0.188522 -0.533597 -0.663645 
0 0 -1.47888 0.307594 0.0622247 -0.474723 0 0 -1.46622 
0.133503 0.528408 -0.721147 0.427123 0.328896 -0.425545 0 0 -1.41433 
0 0 -1.42796 0 0 -1.4261 -0.164424 -0.169497 -0.242543 
0 0 -1.42031 0 0 -1.40765 0 0 -1.39117 
0 0 -1.39647 0 0 -1.37881 0 0 -1.38411 
0 0 -1.35468 0 0 -1.33535 0 0 -1.36145 
0 0 -1.3174 0 0 -1.31534 0 0 -1.33379 
0 0 -1.28513 0 0 -1.29092 0 0 -1.28101 
0 0 -1.28729 0 0 -1.3022 0 0 -1.26619 
0 0 -1.26796 0 0 -1.24196 0 0 -1.23588 
0 0 -1.22382 0 0 -1.23382 0 0 -1.19458 
0 0 -1.21283 0 0 -1.1986 0 0 -1.20439 
0 0 -1.19929 0 0 -1.19645 0 0 -1.2144 
0 0 -1.18703 0 0 -1.1627 0 0 -1.14926 
0 0 -1.13572 0 0 -1.16034 0 0 -1.10256 
0 0 -1.11826 0 0 -1.10982 0 0 -1.09835 
0 0 -1.11541 0 0 -1.12699 0 0 -1.0747 
0 0 -1.07421 0 0 -1.06715 0 0 -1.04871 
0 0 -1.04596 0 0 -1.04105 0 0 -1.06126 
0 0 -1.01722 0 0 -1.02202 0 -0 -1 
0 0 -1.02369 0 -0 -1 0 -0 -1 
0 0 -1.02094 0 -0 -1 0 -0 -1 
0 -0 -1 0 -0 -1 0 -0 -1 

f 3 357 double
0 0 -0.000346714 0 0 -0.000346714 0 0 -0.000346714 
0 0 -0.000346714 0.00153212 2.65962e-05 0.00456864 0 0 -0.000346714 
0 0 -0.000346714 3.28924e-10 1.91243e-10 3.72356e-08 0 0 -0.000346714 
-0.0138996 0.00164862 0.00314367 -3.29808e-14 -3.0209e-14 2.77132e-11 0 0 -0.00160516 
0 0 -0.000346714 0 0 -0.000346714 0 0 -0.000346714 
0 0 -0.000346714 0 0 -0.000346714 0 0 -0.000346714 
0 0 -0.00160516 0 0 -0.000346714 0 0 -0.000346714 
-2.43112e-06 1.55345e-06 0.000616858 0 0 -0.000346714 0 0 -0.000346714 
4.15931e-07 -2.77747e-07 -7.53077e-06 6.42152e-09 2.01385e-08 -3.37188e-06 4.56119e-06 -9.35882e-07 0.000429101 
0 0 -0.000346714 9.99127e-13 -1.74352e-13 -3.07363e-09 7.87236e-07 -1.84153e-06 0.000623117 
0 0 -0.00160516 0 0 -0.00160516 0 0 -0.000346714 
0.000161618 0.000388986 -0.00358649 0 0 -0.000346714 0 0 -0.000346714 
-1.4506e-12 4.35152e-13 1.44384e-10 0 0 -0.000346714 3.46787e-18 -1.68397e-18 -5.42101e-20 
1.14809e-16 -5.45389e-17 -3.26952e-15 0 0 -0.000346714 -6.37614e-11 1.75743e-10 -8.26603e-10 
-3.33259e-13 5.01525e-13 2.11811e-07 6.94354e-18 -1.34712e-17 0 0 0 -0.000346714 
1.44294e-08 2.19031e-08 1.33899e-05 0 0 -0.000346714 -2.77566e-17 7.13946e-18 0 
1.0348e-13 6.41149e-14 9.67774e-11 -8.16747e-05 5.23636e-05 1.94012e-05 -5.03588e-06 4.39802e-06 -8.83789e-05 
-3.33524e-18 1.116e-16 0 3.51612e-14 1.08941e-12 -1.01468e-10 -1.45639e-15 -1.37232e-15 -1.11734e-13 
-1.99712e-06 -2.55321e-07 0.000225932 -8.73186e-07 1.06028e-06 -7.4077e-05 0 0 -0.000346714 
0 0 -0.000346714 4.86362e-11 -9.00969e-12 1.69834e-08 0 0 -0.000346714 
2.51824e-13 -5.91434e-14 4.49182e-11 0 0 -0.000346714 0 0 -0.000346714 
1.06233e-17 -1.84981e-17 2.11419e-18 -1.34033e-13 1.18182e-13 -5.96277e-10 -7.33454e-06 -3.48992e-06 -0.00300424 
0 0 -0.000346714 3.0239e-11 -2.04681e-11 1.28147e-08 0 0 -0.000346714 
0 0 -0.000346714 0 0 -0.00160516 0 0 -0.000346714 
-0.00163748 -0.000946733 0.0225532 0 0 -0.00160516 -3.46167e-15 -8.09656e-14 1.09308e-11 
0 0 -0.000346714 -0.000563954 -0.000420791 -0.0124142 0 0 -0.000346714 
0 0 -0.000346714 0.0303757 -0.00623751 -0.000457225 0 0 -0.000346714 
0 0 -0.00160516 0 0 -0.00160516 0 0 -0.000346714 
0 0 -0.00160516 -0.000252691 -0.0350959 0.0135428 0 0 -0.000346714 
0 0 -0.000346714 0.000252691 0.0350959 -0.0154946 -0.00345696 -0.00378188 0.0110942 
0 0 -0.000346714 0 0 -0.000346714 0 0 -0.000346714 
0 0 -0.000346714 0 0 -0.00160516 0 0 -0.000346714 
0 0 -0.00160516 0 0 -0.000346714 0 0 -0.00160516 
0 0 -0.000346714 0 0 -0.00160516 0 0 -0.00160516 
0 0 -0.000346714 0 0 -0.000346714 0 0 -0.000346714 
0 0 -0.00160516 0 0 -0.00160516 0 0 -0.000346714 
0 0 -0.00160516 0 0 -0.000346714 0 0 -0.00160516 
0 0 -0.000346714 0 0 -0.000346714 0 0 -0.00160516 
0 0 -0.00160516 0 0 -0.000346714 0 0 -0.00160516 
0 0 -0.000346714 0 0 -0.00160516 0 0 -0.000346714 
0 0 -0.000346714 0 0 -0.00160516 0 0 -0.000346714 
0 0 -0.00160516 0 0 -0.000346714 0 0 -0.00160516 
0 0 -0.00160516 0 0 -0.000346714 0 0 -0.000346714 
0 0 -0.000346714 0 0 -0.000346714 0 0 -0.000346714 
0 0 -0.000346714 0 0 -0.00160516 0 0 -0.000346714 
0.00293757 0.00236472 0.00395567 0 0 -0.00160516 0 0 -0.00160516 
0 0 -0.00160516 0 0 -0.000346714 0 0 -0.000346714 
0 0 -0.000346714 0 0 -0.000346714 0 0 -0.000346714 
0 0 -0.000346714 0 0 -0.000346714 0 0 -0.000346714 
0 0 -0.000346714 0 0 -0.000346714 0 0 -0.00160516 
0 0 -0.00160516 0.162612 -0.0679816 -0.145256 0 0 -0.00160516 
0 0 -0.000346714 0 0 -0.000346714 0 0 -0.00160516 
0 0 -0.00160516 0 0 -0.000346714 0 0 -0.00160516 