# vtk DataFile Version 4.0
Generated by LIGGGHTS
ASCII
DATASET POLYDATA
POINTS 756 float
-0.0125377 -0.0480262 0.0811201 -0.0081636 -0.0490302 0.0815581 -0.00465207 -0.0492608 0.0812121 
-0.00049342 -0.0496588 0.0811206 0.00418899 -0.0485046 0.0821183 0.00818109 -0.0486469 0.0811205 
0.0130009 -0.047824 0.0811276 -0.0198064 -0.0455144 0.0811205 -0.0225818 -0.0440836 0.0811202 
-0.0151768 -0.0466017 0.0811217 -0.0126518 -0.044948 0.0811205 -0.00912923 -0.0461214 0.0815412 
-0.006254 -0.0467655 0.0812669 -0.00624893 -0.0437602 0.0811203 -0.00321713 -0.0460179 0.0811351 
0.00043909 -0.0467461 0.0811208 -0.000468134 -0.0438881 0.0811193 0.00730446 -0.0457461 0.0811205 
0.0108985 -0.0456783 0.0811205 0.0159165 -0.047025 0.0811205 0.0187537 -0.045962 0.0811203 
0.0230548 -0.0440268 0.0811204 -0.0254053 -0.041433 0.0821184 -0.0171172 -0.0424469 0.0811185 
-0.0135532 -0.0409476 0.0821326 -0.00989868 -0.0427106 0.0811205 -0.00359703 -0.042359 0.0811249 
0.0130437 -0.0412326 0.0821535 0.0179558 -0.0421739 0.0821231 0.0228324 -0.0410366 0.0811213 
0.02635 -0.0420189 0.0811205 -0.0292094 -0.0381857 0.0821183 -0.0197016 -0.0388008 0.0821183 
0.00687026 -0.0390954 0.0821017 0.0162924 -0.0373628 0.0821432 0.0205629 -0.0389916 0.0811205 
0.0254481 -0.0381745 0.0821188 0.0293332 -0.0382888 0.0811363 0.032357 -0.0376195 0.0813863 
-0.0325351 -0.0344419 0.0821178 -0.023373 -0.0365717 0.0811196 -0.0219907 -0.0339829 0.0816614 
-0.0153026 -0.0353752 0.0816733 -0.0123396 -0.0363519 0.0811205 0.00316238 -0.0367695 0.0811207 
0.0138305 -0.0341523 0.0814767 0.0187885 -0.03428 0.0811205 0.0219336 -0.035054 0.0811204 
0.0350409 -0.0351223 0.0811205 -0.0387731 -0.030701 0.0811205 -0.0365179 -0.0330881 0.0811205 
-0.0353595 -0.0302849 0.0811205 -0.032381 -0.0298995 0.0811247 -0.0262471 -0.0327463 0.0811204 
-0.0292564 -0.0314996 0.0811205 -0.0237799 -0.0312269 0.0819425 -0.011905 -0.0333167 0.0811205 
-0.00802813 -0.03305 0.0821449 -0.00288143 -0.0331022 0.0812565 0.00660485 -0.0335592 0.0811205 
0.0166552 -0.0317732 0.0811205 0.02034 -0.0301701 0.0821194 0.0250704 -0.0328221 0.0822346 
0.0304691 -0.0331056 0.0822994 0.0367995 -0.0323724 0.0818934 0.0384815 -0.0298285 0.0813452 
-0.0414672 -0.0265718 0.0812847 -0.0380214 -0.0273892 0.0811205 -0.0336382 -0.0264255 0.0811404 
-0.0300571 -0.0279414 0.0811205 -0.0266672 -0.029526 0.0812627 -0.0200764 -0.0281732 0.0821183 
-0.0158619 -0.0283808 0.0811205 -0.0117516 -0.0268513 0.0811205 -0.00802047 -0.029066 0.0812873 
0.00591754 -0.0291015 0.0811919 0.0091563 -0.0292045 0.0811205 0.0135098 -0.0286356 0.0812136 
0.0171887 -0.0276721 0.0822127 0.0325987 -0.0286274 0.0831497 0.039304 -0.0269333 0.0811202 
-0.0397346 -0.0240997 0.0811203 -0.023677 -0.0255067 0.0811205 -0.0215743 -0.0229936 0.0811559 
-0.0169775 -0.0253638 0.08112 -0.0143683 -0.0233884 0.0811205 -0.00885659 -0.0256191 0.0811205 
0.00950882 -0.0260022 0.0811206 0.0155395 -0.0253924 0.0811205 0.0249235 -0.022888 0.0812398 
0.0422628 -0.0260968 0.0811216 0.0410587 -0.0229037 0.0811205 -0.0425952 -0.0194271 0.0821183 
-0.035545 -0.022655 0.0821426 -0.0281506 -0.0215676 0.0821186 -0.0179511 -0.0211629 0.0827065 
-0.0113778 -0.0220032 0.0811212 0.00750343 -0.0209345 0.0821175 0.0128709 -0.0225594 0.0821146 
0.0168384 -0.0217958 0.0811203 0.020802 -0.0221313 0.0821175 0.0356044 -0.0197066 0.0811205 
0.0369127 -0.0226692 0.0811205 0.0449643 -0.0211609 0.0812414 -0.0455316 -0.0167062 0.0811205 
-0.0272399 -0.0159792 0.0811205 -0.0226305 -0.0158895 0.0811205 -0.02042 -0.0184345 0.0811156 
-0.0191601 -0.0159262 0.0821659 -0.0140689 -0.0177825 0.0814113 0.00961268 -0.017663 0.0811225 
0.0151855 -0.0191537 0.0811272 0.0181812 -0.016223 0.082202 0.0273473 -0.0162807 0.08175 
0.0309857 -0.0192045 0.0821183 0.0347229 -0.0167545 0.0811205 0.0393622 -0.0179379 0.0821183 
0.0455541 -0.0166064 0.0821162 -0.047513 -0.0143793 0.0811208 -0.0440775 -0.014053 0.0811205 
-0.0294109 -0.0130585 0.0811189 -0.0227572 -0.0130002 0.0819225 -0.0198747 -0.0132039 0.0811198 
-0.0169525 -0.0141956 0.0811175 -0.0131191 -0.0149391 0.0811205 0.00419144 -0.0134395 0.0811201 
0.00610912 -0.0159113 0.0811206 0.00888527 -0.0129136 0.0821183 0.0132467 -0.0153612 0.0821183 
0.0160504 -0.0120516 0.0812643 0.0303754 -0.0129294 0.0821183 0.0360048 -0.013992 0.0811275 
0.0385415 -0.0124341 0.0815435 0.0420331 -0.015002 0.0811211 0.0444337 -0.012838 0.0811205 
0.0477223 -0.0133937 0.0811195 -0.0474717 -0.0105022 0.0821171 -0.0421401 -0.00999739 0.0821582 
-0.0336612 -0.0105556 0.0811207 -0.034339 -0.0147789 0.0814786 -0.0274699 -0.0106834 0.0811205 
-0.0228723 -0.00900153 0.0821184 -0.0191424 -0.0101914 0.0811185 -0.0163282 -0.0112324 0.0811312 
-0.013088 -0.0118461 0.0811205 -0.0131479 -0.00880667 0.0811205 -0.00956915 -0.0101052 0.0811205 
-0.00413666 -0.0108084 0.0821183 0.0103474 -0.00932694 0.0811205 0.0230491 -0.00897522 0.0821192 
0.0260163 -0.0116383 0.0819145 -0.049192 -0.00703794 0.0811155 -0.0444287 -0.00589909 0.0811205 
-0.0307452 -0.00795249 0.0821183 -0.026742 -0.00701686 0.0811075 -0.0171796 -0.0078578 0.0811205 
-0.0189831 -0.00529369 0.0811205 -0.0133295 -0.0057915 0.0811205 -0.0105982 -0.00722404 0.0811205 
-0.00707577 -0.00819065 0.0811205 -0.00819038 -0.00536213 0.0811205 0.000399877 -0.00715174 0.0821183 
0.00564902 -0.00861299 0.0811205 0.0054709 -0.00549371 0.0811205 0.00900447 -0.0063176 0.0811216 
0.0136006 -0.0066312 0.0812046 0.0295554 -0.00747573 0.0811205 0.0333115 -0.00881223 0.0821203 
0.0372431 -0.00808002 0.0811179 0.0395759 -0.00661096 0.0822943 0.0422454 -0.0058451 0.0811164 
0.046755 -0.00611414 0.0811205 0.0488668 -0.00834287 0.0811188 -0.0476226 -0.00353784 0.0822135 
-0.0398221 -0.00223701 0.0811205 -0.0357871 -0.00192196 0.0821191 -0.0234874 -0.00517782 0.0811204 
-0.0262815 -0.00397773 0.0811205 -0.0212179 -0.00321062 0.0811205 -0.0161646 -0.00422274 0.0811205 
-0.013574 -0.00259862 0.0811205 -0.0108938 -0.00403259 0.0812459 -0.00867569 -0.00199113 0.0811205 
-0.00508433 -0.00494468 0.0811205 0.00117446 -0.00328014 0.0811205 0.00824103 -0.00198957 0.0821183 
0.0159004 -0.00291351 0.0811206 0.0190292 -0.00321716 0.0811205 0.0215687 -0.00516164 0.081116 
0.0339222 -0.00289272 0.0811205 0.0460423 -0.00230291 0.0821183 0.0494072 -0.00469982 0.0811205 
-0.0440011 -0.000103235 0.0821119 -0.0403212 0.001402 0.0811205 -0.0306229 8.23375e-05 0.08112 
-0.0281392 -0.00162212 0.0811204 -0.0231455 0.000370041 0.0821183 -0.0181646 -0.000815107 0.0821174 
-0.0144449 0.000274549 0.0811203 -0.00564019 -0.000584929 0.0814144 0.012877 -0.0013881 0.081119 
0.0191639 -0.000188413 0.0811208 0.0160596 0.000118182 0.0811206 0.0228139 -0.00146015 0.0821906 
0.0271689 0.0013455 0.0811205 0.0308115 -0.000542003 0.082118 0.0369067 0.000949961 0.0811205 
-0.0495276 0.0025651 0.0811181 -0.0434795 0.00495803 0.0821181 -0.0396508 0.00437488 0.0811165 
-0.0366745 0.00187768 0.0811298 -0.0315941 0.00314188 0.08113 -0.0286339 0.00261498 0.0811223 
-0.018131 0.00344453 0.0811205 -0.0142635 0.00415825 0.0821217 -0.00923423 0.00215103 0.0821183 
0.000278516 0.00271699 0.0821183 0.00533005 0.00213199 0.0821285 0.0124962 0.00246282 0.0821185 
0.0186031 0.00276646 0.0811994 0.0159867 0.00423287 0.0811206 0.0218931 0.00227796 0.0811186 
0.0247534 0.00321824 0.0811205 0.0333499 0.0027439 0.0811205 0.0302575 0.00328939 0.0811212 
0.0449626 0.00151008 0.081145 -0.0483113 0.00631644 0.0821171 -0.0405944 0.0075538 0.0811219 
-0.0350136 0.00450377 0.0812779 -0.0283216 0.00601541 0.0811203 -0.0233124 0.00541451 0.0821191 
-0.0176288 0.00682151 0.0811226 -0.00444349 0.00800458 0.0821182 0.00630965 0.00708234 0.0811205 
0.0140152 0.00655795 0.0811205 0.0210109 0.00625773 0.0821306 0.0251272 0.00639132 0.0811205 
0.0281114 0.00539224 0.0811205 0.028765 0.00833548 0.0811522 0.0319813 0.00585165 0.0811205 
0.0381898 0.00634971 0.0811205 0.0446777 0.00687944 0.0811205 0.0481799 0.00498195 0.0821183 
-0.0472811 0.0113962 0.082118 -0.0441539 0.00879745 0.0811204 -0.0236239 0.00946249 0.0826437 
-0.0145217 0.00915523 0.0821258 0.00335625 0.00855982 0.0811205 0.00947665 0.00910214 0.0811564 
0.0131038 0.0125766 0.0821172 0.0170531 0.00920598 0.0811205 0.0334017 0.00953958 0.0821183 
0.0417454 0.012033 0.0821183 -0.0412136 0.01251 0.0821157 -0.0135476 0.0133945 0.0811205 
-0.00757435 0.0121168 0.0821868 0.00159267 0.0142568 0.0820182 0.00594701 0.0117431 0.0821171 
0.0182907 0.0130738 0.0811205 0.0224503 0.0119575 0.0821156 0.0272651 0.0141289 0.0821018 
0.0463572 0.0139977 0.0821183 -0.0458505 0.0162077 0.0821182 -0.0420429 0.0169883 0.0811187 
-0.0324914 0.0162118 0.0814989 -0.0286597 0.018121 0.0821183 -0.0163591 0.0173078 0.082118 
0.00142612 0.0186856 0.0831349 0.0280458 0.0179906 0.0811232 0.0325865 0.017079 0.0821183 
0.0369903 0.0183959 0.0811205 0.0420323 0.0171522 0.0821183 0.0457818 0.0186723 0.0811205 
-0.0437267 0.0212643 0.0821182 -0.0390017 0.0194287 0.0821169 -0.0357232 0.0221179 0.0818848 
-0.0178567 0.0223276 0.0811205 -0.00842574 0.0214952 0.0811205 -0.00396489 0.0217335 0.0821184 
0.0047302 0.0216501 0.0827448 0.0230317 0.0223308 0.082109 0.0308054 0.021628 0.081124 
0.0347719 0.0208156 0.0811205 0.0433034 0.0221774 0.0821019 -0.0400563 0.0234261 0.0811201 
-0.036886 0.0248883 0.0812098 -0.0338081 0.0258457 0.0811206 -0.0310498 0.0232383 0.0823522 
-0.0268656 0.0229149 0.0821151 -0.0184636 0.0256098 0.0811205 -0.0135522 0.0238863 0.0811205 
-0.0104415 0.0237841 0.0811205 0.000611602 0.0256307 0.0811206 0.0273336 0.0227552 0.0811205 
0.0330356 0.0250087 0.0821183 0.0377239 0.023179 0.0811205 0.0421762 0.0261948 0.0811188 
-0.0401143 0.0273165 0.082113 -0.026965 0.0270726 0.0811602 -0.0228765 0.0277124 0.0821183 
-0.0153202 0.0268011 0.0811205 -0.00777411 0.0272281 0.0811326 -0.00390177 0.029963 0.0811212 
0.0032005 0.0278293 0.0811166 0.0086711 0.0264871 0.0811205 0.0120829 0.0287378 0.0822354 
0.0197328 0.0253194 0.081305 0.022162 0.0284836 0.0811485 0.029564 0.0277578 0.0811197 
0.0325354 0.0296461 0.0811205 0.0368092 0.0268059 0.0811205 0.0404628 0.0287474 0.0811205 
[...]
POINT_DATA 756
FIELD FieldData 7
id 1 756 int
51 207 96 273 172 50 151 262 199 
11 290 278 48 137 228 100 59 277 
187 239 161 279 2 164 119 113 178 
371 257 426 390 297 269 182 398 203 
208 18 409 211 213 193 548 191 87 
46 166 97 216 77 180 304 168 21 
293 329 421 362 192 492 90 449 184 
319 240 289 88 38 433 496 58 94 
342 351 407 480 510 523 303 92 110 
428 352 24 287 338 252 378 364 454 
74 72 134 460 185 272 515 310 43 
98 332 63 366 175 176 49 173 62 
299 76 478 367 462 444 473 377 222 
221 274 149 266 153 165 275 431 124 
102 28 372 95 80 227 86 140 128 
267 259 183 306 584 125 15 39 286 
250 32 138 30 84 131 69 294 382 
233 218 70 154 45 280 141 12 55 
204 375 249 64 202 14 406 109 13 
10 238 156 383 197 9 253 356 33 
263 370 292 163 276 106 353 35 237 
363 130 82 209 217 36 291 53 146 
212 264 241 122 155 245 224 159 205 
85 79 126 57 89 111 115 54 40 
232 3 104 336 229 112 179 350 337 
442 1 314 20 22 447 150 436 339 
244 158 23 265 256 162 255 312 157 
144 268 451 397 254 129 66 326 411 
320 322 71 285 599 284 505 374 399 
373 105 61 8 235 295 559 75 143 
288 323 368 29 120 470 415 380 246 
487 581 219 305 145 83 25 466 365 
5 190 349 225 313 167 234 174 327 
41 214 118 108 189 395 465 536 437 
593 393 401 37 200 201 47 148 403 
376 391 475 533 308 488 484 468 188 
282 103 42 68 302 181 73 443 139 
471 142 315 226 195 417 121 455 379 
483 307 445 91 206 31 26 101 99 
236 534 281 242 440 16 328 198 135 
123 309 114 60 7 52 81 251 136 
152 56 243 186 344 479 412 220 44 
506 423 457 396 394 422 171 491 34 
489 583 495 600 575 258 435 580 549 
529 596 298 6 562 541 542 384 419 
554 300 522 261 65 132 594 408 425 
331 493 318 67 463 160 464 481 127 
556 509 260 93 247 354 348 441 316 
317 502 452 133 439 429 215 357 311 
347 385 525 427 270 392 341 117 577 
543 589 555 389 404 410 585 574 513 
570 558 532 588 467 504 147 301 418 
430 210 17 231 508 503 420 333 335 
325 360 571 177 579 116 196 501 223 
27 194 78 355 474 461 482 432 170 
248 424 414 402 340 358 597 507 459 
582 345 590 416 19 608 553 169 564 
526 603 485 271 296 4 230 517 494 
499 334 519 521 453 321 343 107 446 
369 388 530 598 359 405 283 518 434 
477 386 572 450 361 458 498 476 547 
346 486 568 400 561 520 330 456 324 
560 569 537 516 381 531 539 607 545 
528 524 551 546 578 387 511 565 544 
557 563 490 552 500 514 604 592 472 
591 413 609 601 605 619 550 438 512 
469 612 448 620 497 617 535 614 624 
527 622 621 613 540 626 615 633 616 
635 636 627 639 538 576 610 631 611 
573 586 634 625 629 638 649 643 648 
651 645 595 650 647 630 642 644 632 
637 606 665 663 623 660 602 656 654 
661 618 662 641 657 653 567 664 667 
652 678 587 673 655 668 675 670 566 
677 672 671 676 658 669 682 674 640 
683 690 684 687 685 628 681 679 688 
666 689 699 646 659 686 691 680 701 
702 695 698 696 697 694 704 693 692 
700 703 708 713 710 711 709 706 707 
714 717 716 715 724 725 712 705 718 
723 721 727 726 728 722 743 730 719 
720 737 729 742 731 734 738 732 735 
741 744 740 736 733 739 751 750 746 
755 745 754 748 752 747 753 756 749 

type 1 756 int
1 1 1 1 1 1 1 1 1 
1 1 1 1 1 1 1 1 1 
1 1 1 1 1 1 1 1 1 
1 1 1 1 1 1 1 1 1 
1 1 1 1 1 1 1 1 1 
1 1 1 1 1 1 1 1 1 
1 1 1 1 1 1 1 1 1 
1 1 1 1 1 1 1 1 1 
1 1 1 1 1 1 1 1 1 
1 1 1 1 1 1 1 1 1 
1 1 1 1 1 1 1 1 1 
1 1 1 1 1 1 1 1 1 
1 1 1 1 1 1 1 1 1 
1 1 1 1 1 1 1 1 1 
1 1 1 1 1 1 1 1 1 
1 1 1 1 1 1 1 1 1 
1 1 1 1 1 1 1 1 1 
1 1 1 1 1 1 1 1 1 
1 1 1 1 1 1 1 1 1 
1 1 1 1 1 1 1 1 1 
1 1 1 1 1 1 1 1 1 
1 1 1 1 1 1 1 1 1 
1 1 1 1 1 1 1 1 1 
1 1 1 1 1 1 1 1 1 
1 1 1 1 1 1 1 1 1 
1 1 1 1 1 1 1 1 1 
1 1 1 1 1 1 1 1 1 
1 1 1 1 1 1 1 1 1 
1 1 1 1 1 1 1 1 1 
1 1 1 1 1 1 1 1 1 
1 1 1 1 1 1 1 1 1 
1 1 1 1 1 1 1 1 1 
1 1 1 1 1 1 1 1 1 
1 1 1 1 1 1 1 1 1 
1 1 1 1 1 1 1 1 1 
1 1 1 1 1 1 1 1 1 
1 1 1 1 1 1 1 1 1 
1 1 1 1 1 1 1 1 1 
1 1 1 1 1 1 1 1 1 
1 1 1 1 1 1 1 1 1 
1 1 1 1 1 1 1 1 1 
1 1 1 1 1 1 1 1 1 
1 1 1 1 1 1 1 1 1 
1 1 1 1 1 1 1 1 1 
1 1 1 1 1 1 1 1 1 
1 1 1 1 1 1 1 1 1 
1 1 1 1 1 1 1 1 1 
1 1 1 1 1 1 1 1 1 
1 1 1 1 1 1 1 1 1 
1 1 1 1 1 1 1 1 1 
1 1 1 1 1 1 1 1 1 
1 1 1 1 1 1 1 1 1 
1 1 1 1 1 1 1 1 1 
1 1 1 1 1 1 1 1 1 
1 1 1 1 1 1 1 1 1 
1 1 1 1 1 1 1 1 1 
1 1 1 1 1 1 1 1 1 
1 1 1 1 1 1 1 1 1 
1 1 1 1 1 1 1 1 1 
1 1 1 1 1 1 1 1 1 
1 1 1 1 1 1 1 1 1 
1 1 1 1 1 1 1 1 1 
1 1 1 1 1 1 1 1 1 
1 1 1 1 1 1 1 1 1 
1 1 1 1 1 1 1 1 1 
1 1 1 1 1 1 1 1 1 
1 1 1 1 1 1 1 1 1 
1 1 1 1 1 1 1 1 1 
1 1 1 1 1 1 1 1 1 
1 1 1 1 1 1 1 1 1 
1 1 1 1 1 1 1 1 1 
1 1 1 1 1 1 1 1 1 
1 1 1 1 1 1 1 1 1 
1 1 1 1 1 1 1 1 1 
1 1 1 1 1 1 1 1 1 
1 1 1 1 1 1 1 1 1 
1 1 1 1 1 1 1 1 1 
1 1 1 1 1 1 1 1 1 
1 1 1 1 1 1 1 1 1 
1 1 1 1 1 1 1 1 1 
1 1 1 1 1 1 1 1 1 
1 1 1 1 1 1 1 1 1 
1 1 1 1 1 1 1 1 1 
1 1 1 1 1 1 1 1 1 

i 3 756 int
0 0 0 0 0 0 0 0 0 
0 0 0 0 0 0 0 0 0 
0 0 0 0 0 0 0 0 0 
0 0 0 0 0 0 0 0 0 
0 0 0 0 0 0 0 0 0 
0 0 0 0 0 0 0 0 0 
0 0 0 0 0 0 0 0 0 
0 0 0 0 0 0 0 0 0 
0 0 0 0 0 0 0 0 0 
0 0 0 0 0 0 0 0 0 
0 0 0 0 0 0 0 0 0 
0 0 0 0 0 0 0 0 0 
0 0 0 0 0 0 0 0 0 
0 0 0 0 0 0 0 0 0 
0 0 0 0 0 0 0 0 0 
0 0 0 0 0 0 0 0 0 
0 0 0 0 0 0 0 0 0 
0 0 0 0 0 0 0 0 0 
0 0 0 0 0 0 0 0 0 
0 0 0 0 0 0 0 0 0 
0 0 0 0 0 0 0 0 0 
0 0 0 0 0 0 0 0 0 
0 0 0 0 0 0 0 0 0 
0 0 0 0 0 0 0 0 0 
0 0 0 0 0 0 0 0 0 
0 0 0 0 0 0 0 0 0 
0 0 0 0 0 0 0 0 0 
0 0 0 0 0 0 0 0 0 
0 0 0 0 0 0 0 0 0 
0 0 0 0 0 0 0 0 0 
0 0 0 0 0 0 0 0 0 
0 0 0 0 0 0 0 0 0 
0 0 0 0 0 0 0 0 0 
0 0 0 0 0 0 0 0 0 
0 0 0 0 0 0 0 0 0 
0 0 0 0 0 0 0 0 0 
0 0 0 0 0 0 0 0 0 
0 0 0 0 0 0 0 0 0 
0 0 0 0 0 0 0 0 0 
0 0 0 0 0 0 0 0 0 
0 0 0 0 0 0 0 0 0 
0 0 0 0 0 0 0 0 0 
0 0 0 0 0 0 0 0 0 
0 0 0 0 0 0 0 0 0 
0 0 0 0 0 0 0 0 0 
0 0 0 0 0 0 0 0 0 
0 0 0 0 0 0 0 0 0 
0 0 0 0 0 0 0 0 0 
0 0 0 0 0 0 0 0 0 
0 0 0 0 0 0 0 0 0 
0 0 0 0 0 0 0 0 0 
0 0 0 0 0 0 0 0 0 
0 0 0 0 0 0 0 0 0 
0 0 0 0 0 0 0 0 0 
0 0 0 0 0 0 0 0 0 
0 0 0 0 0 0 0 0 0 
0 0 0 0 0 0 0 0 0 
0 0 0 0 0 0 0 0 0 
0 0 0 0 0 0 0 0 0 
0 0 0 0 0 0 0 0 0 
0 0 0 0 0 0 0 0 0 
0 0 0 0 0 0 0 0 0 
0 0 0 0 0 0 0 0 0 
0 0 0 0 0 0 0 0 0 
0 0 0 0 0 0 0 0 0 
0 0 0 0 0 0 0 0 0 
0 0 0 0 0 0 0 0 0 
0 0 0 0 0 0 0 0 0 
0 0 0 0 0 0 0 0 0 
0 0 0 0 0 0 0 0 0 
0 0 0 0 0 0 0 0 0 
0 0 0 0 0 0 0 0 0 
0 0 0 0 0 0 0 0 0 
0 0 0 0 0 0 0 0 0 
0 0 0 0 0 0 0 0 0 
0 0 0 0 0 0 0 0 0 
0 0 0 0 0 0 0 0 0 
0 0 0 0 0 0 0 0 0 
0 0 0 0 0 0 0 0 0 
0 0 0 0 0 0 0 0 0 
0 0 0 0 0 0 0 0 0 
0 0 0 0 0 0 0 0 0 
0 0 0 0 0 0 0 0 0 
0 0 0 0 0 0 0 0 0 
0 0 0 0 0 0 0 0 0 
0 0 0 0 0 0 0 0 0 
0 0 0 0 0 0 0 0 0 
0 0 0 0 0 0 0 0 0 
0 0 0 0 0 0 0 0 0 
0 0 0 0 0 0 0 0 0 
0 0 0 0 0 0 0 0 0 
0 0 0 0 0 0 0 0 0 
0 0 0 0 0 0 0 0 0 
0 0 0 0 0 0 0 0 0 
0 0 0 0 0 0 0 0 0 
0 0 0 0 0 0 0 0 0 
0 0 0 0 0 0 0 0 0 
0 0 0 0 0 0 0 0 0 
0 0 0 0 0 0 0 0 0 
0 0 0 0 0 0 0 0 0 
0 0 0 0 0 0 0 0 0 
0 0 0 0 0 0 0 0 0 
0 0 0 0 0 0 0 0 0 
0 0 0 0 0 0 0 0 0 
0 0 0 0 0 0 0 0 0 
0 0 0 0 0 0 0 0 0 
0 0 0 0 0 0 0 0 0 
0 0 0 0 0 0 0 0 0 
0 0 0 0 0 0 0 0 0 
0 0 0 0 0 0 0 0 0 
0 0 0 0 0 0 0 0 0 
0 0 0 0 0 0 0 0 0 
0 0 0 0 0 0 0 0 0 
0 0 0 0 0 0 0 0 0 
0 0 0 0 0 0 0 0 0 
0 0 0 0 0 0 0 0 0 
0 0 0 0 0 0 0 0 0 
0 0 0 0 0 0 0 0 0 
0 0 0 0 0 0 0 0 0 
0 0 0 0 0 0 0 0 0 
0 0 0 0 0 0 0 0 0 
0 0 0 0 0 0 0 0 0 
0 0 0 0 0 0 0 0 0 
0 0 0 0 0 0 0 0 0 
0 0 0 0 0 0 0 0 0 
0 0 0 0 0 0 0 0 0 
0 0 0 0 0 0 0 0 0 
0 0 0 0 0 0 0 0 0 
0 0 0 0 0 0 0 0 0 
0 0 0 0 0 0 0 0 0 
0 0 0 0 0 0 0 0 0 
0 0 0 0 0 0 0 0 0 
0 0 0 0 0 0 0 0 0 
0 0 0 0 0 0 0 0 0 
0 0 0 0 0 0 0 0 0 
0 0 0 0 0 0 0 0 0 
0 0 0 0 0 0 0 0 0 
0 0 0 0 0 0 0 0 0 
0 0 0 0 0 0 0 0 0 
0 0 0 0 0 0 0 0 0 
0 0 0 0 0 0 0 0 0 
0 0 0 0 0 0 0 0 0 
0 0 0 0 0 0 0 0 0 
0 0 0 0 0 0 0 0 0 
0 0 0 0 0 0 0 0 0 
0 0 0 0 0 0 0 0 0 
0 0 0 0 0 0 0 0 0 
0 0 0 0 0 0 0 0 0 
0 0 0 0 0 0 0 0 0 
0 0 0 0 0 0 0 0 0 
0 0 0 0 0 0 0 0 0 
0 0 0 0 0 0 0 0 0 
0 0 0 0 0 0 0 0 0 
0 0 0 0 0 0 0 0 0 
0 0 0 0 0 0 0 0 0 
0 0 0 0 0 0 0 0 0 
0 0 0 0 0 0 0 0 0 
0 0 0 0 0 0 0 0 0 
0 0 0 0 0 0 0 0 0 
0 0 0 0 0 0 0 0 0 
0 0 0 0 0 0 0 0 0 
0 0 0 0 0 0 0 0 0 
0 0 0 0 0 0 0 0 0 
0 0 0 0 0 0 0 0 0 
0 0 0 0 0 0 0 0 0 
0 0 0 0 0 0 0 0 0 
0 0 0 0 0 0 0 0 0 
0 0 0 0 0 0 0 0 0 
0 0 0 0 0 0 0 0 0 
0 0 0 0 0 0 0 0 0 
0 0 0 0 0 0 0 0 0 
0 0 0 0 0 0 0 0 0 
0 0 0 0 0 0 0 0 0 
0 0 0 0 0 0 0 0 0 
0 0 0 0 0 0 0 0 0 
0 0 0 0 0 0 0 0 0 
0 0 0 0 0 0 0 0 0 
0 0 0 0 0 0 0 0 0 
0 0 0 0 0 0 0 0 0 
0 0 0 0 0 0 0 0 0 
0 0 0 0 0 0 0 0 0 
0 0 0 0 0 0 0 0 0 
0 0 0 0 0 0 0 0 0 
0 0 0 0 0 0 0 0 0 
0 0 0 0 0 0 0 0 0 
0 0 0 0 0 0 0 0 0 
0 0 0 0 0 0 0 0 0 
0 0 0 0 0 0 0 0 0 
0 0 0 0 0 0 0 0 0 
0 0 0 0 0 0 0 0 0 
0 0 0 0 0 0 0 0 0 
0 0 0 0 0 0 0 0 0 
0 0 0 0 0 0 0 0 0 
0 0 0 0 0 0 0 0 0 
0 0 0 0 0 0 0 0 0 
0 0 0 0 0 0 0 0 0 
0 0 0 0 0 0 0 0 0 
0 0 0 0 0 0 0 0 0 
0 0 0 0 0 0 0 0 0 
0 0 0 0 0 0 0 0 0 
0 0 0 0 0 0 0 0 0 
0 0 0 0 0 0 0 0 0 
0 0 0 0 0 0 0 0 0 
0 0 0 0 0 0 0 0 0 
0 0 0 0 0 0 0 0 0 
0 0 0 0 0 0 0 0 0 
0 0 0 0 0 0 0 0 0 
0 0 0 0 0 0 0 0 0 
0 0 0 0 0 0 0 0 0 
0 0 0 0 0 0 0 0 0 
0 0 0 0 0 0 0 0 0 
0 0 0 0 0 0 0 0 0 
0 0 0 0 0 0 0 0 0 
0 0 0 0 0 0 0 0 0 
0 0 0 0 0 0 0 0 0 
0 0 0 0 0 0 0 0 0 
0 0 0 0 0 0 0 0 0 
0 0 0 0 0 0 0 0 0 
0 0 0 0 0 0 0 0 0 
0 0 0 0 0 0 0 0 0 
0 0 0 0 0 0 0 0 0 
0 0 0 0 0 0 0 0 0 
0 0 0 0 0 0 0 0 0 
0 0 0 0 0 0 0 0 0 
0 0 0 0 0 0 0 0 0 
0 0 0 0 0 0 0 0 0 
0 0 0 0 0 0 0 0 0 
0 0 0 0 0 0 0 0 0 
0 0 0 0 0 0 0 0 0 
0 0 0 0 0 0 0 0 0 
0 0 0 0 0 0 0 0 0 
0 0 0 0 0 0 0 0 0 
0 0 0 0 0 0 0 0 0 
0 0 0 0 0 0 0 0 0 
0 0 0 0 0 0 0 0 0 
0 0 0 0 0 0 0 0 0 
0 0 0 0 0 0 0 0 0 
0 0 0 0 0 0 0 0 0 
0 0 0 0 0 0 0 0 0 
0 0 0 0 0 0 0 0 0 
0 0 0 0 0 0 0 0 0 
0 0 0 0 0 0 0 0 0 
0 0 0 0 0 0 0 0 0 
0 0 0 0 0 0 0 0 0 
0 0 0 0 0 0 0 0 0 
0 0 0 0 0 0 0 0 0 
0 0 0 0 0 0 0 0 0 
0 0 0 0 0 0 0 0 0 
0 0 0 0 0 0 0 0 0 
0 0 0 0 0 0 0 0 0 
0 0 0 0 0 0 0 0 0 
0 0 0 0 0 0 0 0 0 

v 3 756 double
0.0201808 -0.000935017 0.000718544 -0.0110371 -0.054764 0.0322456 -0.396977 -0.135414 0.106476 
0.0463199 0.00240691 -0.000212845 -0.00406011 0.00104344 9.78782e-08 -0.00420681 -0.00490599 -1.24131e-08 
-0.00131583 0.00557927 -0.00768047 0.00896498 -0.00233127 4.04846e-14 0.00626052 -0.00822371 2.07527e-05 
0.0123199 -0.011332 0.000360773 0.00782617 0.0110525 5.61841e-06 -0.344278 0.129173 0.0639189 
-0.141622 0.0484446 -0.0830801 -0.0148333 0.0767628 0.0364669 -0.223856 -0.0608128 -0.0216562 
0.0236233 0.0240023 -0.000352585 0.0161412 0.0231691 0.000461306 0.00186396 9.10066e-05 1.32519e-08 
-0.00123458 0.00878213 -1.2178e-06 0.00432819 0.0030434 1.24665e-08 0.0047875 0.000606033 5.22216e-05 
-0.0185341 -0.00708496 -0.00137998 0.00932425 -0.00487569 7.75138e-05 -0.069327 -0.0134885 -0.00629914 
-0.0622014 -0.0262435 -0.0128015 -0.00832631 -0.0285045 -1.40281e-05 -0.0251189 0.0544545 0.0194849 
-0.027823 0.0126929 0.0554336 -0.0243494 -0.00401758 -0.00323357 -0.028401 -0.024523 -0.000555605 
-0.0477178 -0.0275989 4.04854e-14 0.0183419 0.00162813 -3.65138e-05 -0.00325547 0.00406405 7.18587e-14 
-0.0995389 -0.0403728 0.0886023 -0.0255293 0.00991705 0.0323066 -0.0243056 0.0134056 -1.2051e-05 
0.0148505 -0.0579291 -0.00411945 -0.113238 -0.0390162 0.0173041 -0.0434437 0.0107528 -0.187375 
-0.0223541 -0.0295805 6.39294e-05 -0.041097 0.0234464 -0.0246088 -0.145456 -0.130706 -0.0529132 
-0.0924495 0.147448 0.0313885 -0.0871651 0.00505155 0.000249905 0.141301 -0.048924 -6.50408e-05 
0.104277 0.197346 0.396381 -0.0182634 0.0341245 -1.24117e-09 -0.0427302 -0.0217237 0.000560796 
-0.00147282 0.0020514 -3.14059e-07 0.0048466 -0.00147471 -3.38781e-13 0.00421779 -0.00886 -4.99796e-08 
-0.0108521 0.00108614 1.06186e-06 -0.0149 0.00465805 0.0142312 0.0351263 0.00270372 0.000411849 
0.00730682 0.000109457 2.49964e-13 0.100138 -0.0301829 -0.104123 -0.0415605 -0.0325959 3.14679e-08 
-0.0728009 0.0408925 -0.0089946 -0.0398485 -0.0530293 0.0524979 0.0513394 -0.07036 6.09382e-13 
-0.0152025 -0.00723012 -4.01991e-13 -0.0204131 -0.0219272 0.00121523 -0.0363946 -0.0472052 -0.0143228 
0.0907309 0.0320591 0.101242 -0.0705547 0.128601 0.21072 0.027177 0.0913308 0.0475742 
0.0285082 -0.0356402 0.0301924 0.035134 -0.00264211 -5.53638e-10 0.114252 -0.0192133 0.0167857 
0.0270681 -0.0155955 -9.34525e-08 0.0359061 -0.00617478 -0.0854429 0.00077633 -0.0292544 -2.58955e-09 
0.0168857 -0.0133561 -3.38454e-13 -0.0682111 0.0730062 1.43254e-08 0.0783375 0.00302362 0.022174 
-0.0576066 0.00262916 0.0263998 -0.0185199 0.0966751 -2.45722e-08 0.101446 0.0376519 -0.0094882 
-0.0389257 -0.0366668 -0.0237905 -0.107572 0.150597 0.202026 -0.0154476 0.102617 0.000567118 
-0.0581672 0.0414094 -0.00192512 -0.0112102 -0.00799326 -0.000128917 -0.0507107 -0.00788967 0.0123318 
0.00786915 -0.0193952 -0.00170782 -0.0421792 -0.0485909 7.10546e-10 -0.0540351 0.0492543 -1.98008e-07 
-0.0425823 0.0514159 -0.00092756 -0.029663 -0.0230546 6.5459e-05 0.0225192 0.150245 0.128647 
0.0234026 0.0448772 0.00214337 -0.115206 0.00738708 4.32516e-08 0.0334811 0.0180221 -1.55125e-07 
-0.0250192 0.00811874 0.0113777 0.00150122 0.0581722 -0.00192236 -0.0453548 0.157109 0.386006 
-0.0430642 0.0354272 0.00148839 0.0031904 0.0418411 -0.000257872 -0.0237057 -0.0136154 0.0089233 
0.00401297 -0.0411949 -0.000564947 0.0185873 -0.118792 -0.0172751 -0.017967 -0.0141327 7.7466e-08 
-0.0765182 -0.0758811 4.65673e-05 -0.00294195 -0.00201077 -0.00551398 0.00872249 -0.0145332 2.72417e-05 
0.016936 0.0804692 -0.000171802 0.00668693 0.00729133 -0.000845995 0.00494206 0.0375083 0.00872521 
-0.00136735 0.0394339 0.0237192 -0.0828546 0.0188338 -0.138925 0.0285556 0.0334282 -0.00665071 
-0.0233648 -0.0293519 -0.0280897 -0.275444 -0.0764098 -0.0317754 0.0416652 0.0877899 0.110524 
-0.0237657 -0.0119756 2.23159e-08 -0.0497856 -0.0141808 1.60522e-07 -0.00681509 -0.0264749 -3.80359e-09 
0.0222411 0.0202934 -0.000301704 0.00389532 -0.0124333 -0.000636438 0.00712755 -0.0120117 0.000174429 
0.00115394 0.0334362 0.00499894 -0.043565 0.00752551 -0.0238298 -0.0335178 0.023548 0.00150863 
0.0144704 0.0303272 0.00916817 -0.0336217 0.0092338 2.01821e-05 0.10842 0.10022 0.00405316 
-0.000794662 -0.036083 6.18654e-07 0.0115071 -0.0244158 5.77842e-05 0.00909404 -0.0304685 -6.19833e-05 
-0.157353 0.154236 -0.0200838 -0.0749154 -0.0152158 1.8032e-06 -0.0261538 -0.00714949 0.0077724 
0.00174561 0.00061563 -0.0775132 -0.00453532 -0.0244167 0.000295701 -0.00776353 0.01795 1.71217e-10 
0.0132817 0.0273625 7.64639e-05 0.00349406 -0.00812948 -0.0012356 0.0267775 -0.013198 0.0159777 
0.00965375 -0.0156291 -7.27505e-05 0.450911 -0.71891 -0.189614 -0.0166062 0.0484652 -3.4456e-08 
0.00117011 0.005574 -0.000812594 -0.0171775 0.038292 0.00639438 -0.0125776 0.0083998 0.0127928 
-0.0226772 0.0200412 3.06933e-07 -0.000211331 0.0166748 -0.00068688 0.0311521 0.0149372 -7.22954e-13 
0.047084 0.0344203 -6.34572e-09 -0.00671632 -0.017194 -1.10304e-06 -0.0799249 0.0436912 -0.00105875 
-0.0980552 0.0254343 -0.00597078 -0.00256737 -0.0155343 -0.00259139 0.00598545 -0.0414427 -1.49147e-13 
-0.029726 0.0389843 6.10051e-06 0.00630007 -0.0189755 0.011463 0.00306706 -0.00441489 -3.38781e-13 
0.000295583 -0.00412079 6.9067e-08 -0.0101795 0.00540308 3.579e-05 0.00358647 0.0181729 0.000538465 
0.015433 -0.00493007 4.10004e-05 0.0132344 0.00165991 -4.19571e-06 0.0750699 0.0249345 2.36663e-06 
-0.0548958 -0.0358027 -1.49148e-13 -0.0768823 -0.031039 -5.28414e-13 -0.113477 -0.055789 -0.00150338 
-0.0395019 -0.0655621 0.0152977 0.00902602 -0.0371546 1.01103e-05 -0.0349789 -0.0638443 -0.0116023 
0.0266901 -0.0389495 0.0041497 -0.011626 0.0594752 -0.0264533 -0.00286355 0.0229492 0.00956235 
-0.0058585 0.00682344 -1.66647e-05 0.00031121 0.00791907 0.000548878 0.00303915 -0.0249267 -0.00481423 
-0.00169971 -0.0670926 -6.07617e-08 0.0205412 -0.0328643 -0.00248177 -0.0063634 0.00661491 0.00099313 
-0.0351208 -0.0275478 -1.78222e-05 0.000791916 -0.00175478 -7.94916e-05 0.0080413 -0.0166767 1.65608e-06 
0.00146053 -0.0210345 4.53067e-05 0.00288004 0.0040517 -0.0994228 -0.00108356 0.0193858 -2.94596e-07 
0.0154897 0.0108697 -4.7248e-11 0.0419711 0.0380535 5.12366e-08 -0.0341408 -0.0574842 2.55369e-07 
0.0242465 -0.0132777 -0.000111419 0.017831 -0.0251852 -2.75473e-12 -0.0502898 0.0233996 -0.00130667 
0.0334312 0.0171695 -1.02663e-05 0.0110422 0.00836195 -5.35952e-10 0.00565746 -0.00823368 1.7647e-05 
0.00235508 -0.0179624 0.00073405 0.019739 -0.0229978 5.34715e-06 -0.0153079 -0.00822621 -8.94108e-05 
-0.00937235 -0.00668446 0.000226964 -0.0071248 -0.00819533 -2.39882e-07 0.00687915 -0.00580578 6.69381e-05 
0.0121232 -0.0226167 0.000606557 -0.0384321 -0.0221055 0.0245341 -0.0463794 -0.0513015 -0.00272186 
-0.00102079 -0.0261071 0.000260191 -0.0159269 -0.00786816 -0.000831892 0.0471975 0.0133569 -0.0574893 
-0.00409858 -0.0177002 2.67697e-13 0.0141455 -0.0034165 -3.25113e-05 0.0563582 0.00693258 4.83013e-13 
0.00607487 -0.00849936 -0.000367643 0.00117842 -0.0057308 0.000448888 -4.93671e-05 0.0150809 -0.0257598 
-0.0161168 -0.10914 -0.00318306 0.00124617 -0.0570372 0.014461 0.0180226 -0.0232865 -0.00360845 
-0.0325809 -0.0185069 -2.97661e-05 -0.023668 -0.0103295 -0.0136833 -0.00637362 0.0333792 1.06814e-05 
-0.0213424 -0.0556468 -4.10755e-07 -0.00777301 -0.0364594 -0.0243128 -0.0338874 -0.0531956 0.000337488 
-0.0436538 -0.030294 -0.0024356 -0.0431781 -0.0275682 2.52146e-05 -0.0112306 0.0389116 0.0160088 
0.00452081 -0.00165883 -6.19092e-08 0.0060981 0.00859986 3.61614e-07 -0.00257764 0.00290662 -0.000465552 
0.0278118 -0.0649249 -0.0262178 -0.00259714 -0.018588 0.00303712 0.0280795 -0.0218955 -0.00461302 
0.147459 -0.175239 0.0354779 0.077142 -0.0324955 -0.00240787 -0.0347453 -0.0464091 0.00395502 
-0.0407527 -0.0153933 -0.00570878 0.0169664 -0.0700786 4.7642e-06 -0.0158892 -0.0358956 -1.44241e-05 
-0.0352233 -0.056966 0.000363274 0.0421244 -0.0284554 -0.0203979 0.00625615 0.00452672 -8.80491e-09 
0.0119404 -0.0101705 0.00223948 0.0814189 -0.0341788 -0.0131593 0.0574896 -0.0322651 -2.68786e-08 
0.0509626 -0.014243 -4.01992e-13 0.168607 0.0994559 8.60689e-12 0.00231773 -0.070788 -4.18017e-12 
0.00242567 -0.00301731 0.000550401 0.00729523 -0.022458 -0.000154477 0.13455 0.0336028 0.244071 
-0.01688 -0.0230415 -0.020396 -0.0675864 -0.0814459 7.40244e-09 -0.0267367 -0.0281051 0.00083072 
-0.0302154 0.110032 0.0117494 -0.171577 -0.110482 3.35758e-06 0.098704 -0.0383834 1.81892e-07 
-0.0299236 0.0120437 1.0502e-06 0.0138567 -0.0158444 0.00412891 0.01093 0.004845 9.37145e-08 
-0.162151 -0.0997312 0.0460039 -0.187956 0.0674215 0.299568 0.0712836 -0.140796 -4.93109e-05 
-0.0426243 -0.0694287 -8.29894e-13 -0.0156197 -0.0897875 -0.00386815 -0.022944 -0.102098 -0.0138984 
-0.00360254 -0.0400473 -1.0446e-07 -0.00277286 -0.0204556 -0.000152529 0.00207293 -0.0370812 0.00104418 
0.00112829 0.0431882 0.0240681 0.0347539 -0.0582318 -2.44203e-07 -0.0544834 -0.0838175 0.000173445 
0.185983 0.140889 0.504381 0.28741 -0.25477 -0.00780378 0.00938783 -0.0623141 -0.000128054 
-0.0227467 0.0897716 -8.74627e-11 0.0309945 -0.00848925 7.16156e-07 0.0196274 -0.0290618 6.51797e-12 
-0.000666684 -0.0105226 0.000644424 0.0139929 -0.0156066 -0.00391815 0.0762308 -0.0140207 0.0910093 
-0.0125405 -0.00795203 5.4603e-13 -0.0492078 -0.0871327 -1.61513e-11 0.0163875 0.0110215 -0.000305252 
0.108017 -0.0028493 0.0730719 0.138583 0.0182395 -0.137147 0.0177965 -0.0177998 -0.016301 
0.0245382 -0.0538549 6.72384e-13 0.000587021 -0.0162208 -0.00778027 0.00245103 -0.0492812 -0.00058093 
0.0510553 -0.0368026 -0.00901104 -0.0158826 0.0384809 -0.000135532 -0.0773608 -0.0153476 0.194214 
-0.0102425 -0.0433241 -0.000918736 0.00916306 0.0101668 -2.75569e-13 -0.0349593 -0.0874301 -7.83268e-09 
-0.0232225 -0.0541545 2.54907e-09 0.0101019 -0.00695776 -0.00046423 -0.0222933 -0.0935655 -5.91625e-13 
0.0236452 -0.0250193 -3.2032e-07 0.0293164 -0.0227128 4.82961e-13 0.018155 -0.0132173 0.0483021 
6.53745e-06 -0.0229239 0.00258609 -0.0355582 -0.0176444 0.0312968 -0.0258815 4.30041e-05 -5.58935e-08 
0.0442839 -0.0219458 4.04854e-14 -0.0184115 -0.0265553 -0.00784927 0.0208139 0.058743 -0.0486041 
0.0554819 -0.00384459 -0.0171043 0.0415123 -0.0705453 3.70785e-10 -0.0449486 0.111697 0.00103192 
0.360307 -0.271977 0.136697 0.0665313 0.0484728 0.00906916 -0.00648543 -0.0299962 2.07546e-05 
-0.0192425 -0.0170705 -5.81751e-05 0.0207738 -0.0120989 -5.28413e-13 -0.00894537 0.0112487 -2.18769e-08 
-0.0701496 0.00865706 0.00149251 -0.0565605 0.0543793 0.0102657 -0.0587782 0.00755935 -0.0130407 