# vtk DataFile Version 4.0
Generated by LIGGGHTS
ASCII
DATASET POLYDATA
POINTS 421 float
-0.00192988 -0.0483422 0.0811567 -0.0226875 -0.0441162 0.0811582 -0.0153934 -0.0460126 0.0811205 
-0.0119152 -0.0473638 0.081992 0.00173998 -0.0459449 0.0820048 0.00997925 -0.0447392 0.0815989 
0.0140725 -0.0460715 0.0812968 0.0203433 -0.0448786 0.0811205 -0.0258272 -0.0413095 0.0820675 
-0.0204913 -0.0422211 0.0820393 -0.0162084 -0.0429228 0.0811205 -0.0058107 -0.0421195 0.0811742 
-0.00295604 -0.0408049 0.0811207 -0.0308856 -0.0381803 0.081209 -0.0205027 -0.0393404 0.0811247 
-0.0167016 -0.0384898 0.0824307 -0.006756 -0.0367395 0.0824022 0.0186655 -0.0374678 0.0811205 
0.0318889 -0.0337415 0.0821158 0.0357324 -0.033269 0.0811197 -0.0318757 -0.0322123 0.0811205 
-0.0186287 -0.0303399 0.0812615 -0.00761855 -0.029578 0.081202 0.0129792 -0.0300661 0.0816568 
0.016419 -0.0330062 0.0814808 -0.0406471 -0.028163 0.0815694 -0.0175624 -0.0271087 0.0811205 
-0.00451002 -0.027588 0.0813953 0.00249666 -0.0269998 0.0811255 -0.0227851 -0.0245424 0.0811483 
0.0110132 -0.0226486 0.0816289 0.0156935 -0.0248864 0.0821841 0.0311765 -0.0231831 0.0821315 
0.0370533 -0.0246033 0.0814123 -0.0312755 -0.020545 0.0815487 -0.0241939 -0.0209019 0.0821332 
-0.000254692 -0.0191272 0.0812379 0.0186666 -0.0196661 0.0821512 -0.0448251 -0.0189475 0.0821187 
-0.0330522 -0.0159257 0.0814733 -0.0188348 -0.0190535 0.0811205 -0.0139451 -0.0182012 0.0811636 
-0.00727327 -0.0164081 0.0821183 0.0271328 -0.0173903 0.0824284 0.0426553 -0.0177855 0.0811205 
-0.0235164 -0.0144212 0.0823283 -0.0179749 -0.0153197 0.0812498 -0.0150035 -0.0144881 0.0811243 
-0.0117944 -0.0151536 0.0811241 -0.0376083 -0.00996021 0.0821399 -0.0221698 -0.0105609 0.0814585 
-0.0194767 -0.0125305 0.0812536 -0.0149581 -0.0114251 0.0816518 0.000231054 -0.0115489 0.0814798 
0.0142383 -0.0100802 0.0821184 0.0368653 -0.0109476 0.0818264 -0.0256458 -0.00754834 0.0821309 
-0.0223266 -0.00551445 0.0811556 -0.0178725 -0.00831415 0.0811205 -0.0133142 -0.00827267 0.0811671 
0.0194748 -0.00829167 0.0817075 -0.0219646 -0.00214892 0.0811211 0.041821 -0.00202264 0.0819569 
-0.0339423 -0.00037354 0.0811205 -0.036981 0.000589425 0.0810978 -0.0103063 0.000966665 0.0811493 
-0.0118035 -0.00179142 0.08125 0.0135815 0.000300879 0.0811205 0.0380234 -0.000743242 0.082475 
-0.0339702 0.00483045 0.0811335 -0.0305924 0.00214038 0.0818562 -0.0260329 0.00403755 0.0811205 
-0.0103504 0.00482298 0.0823594 0.0447349 0.0036086 0.081063 0.0494633 0.00363928 0.0811205 
-0.0407983 0.0062463 0.0821005 -0.0317099 0.00700816 0.0811203 -0.022574 0.00727915 0.0821183 
0.00135702 0.0082365 0.0811258 0.0194794 0.00647572 0.0821202 0.0243672 0.00870577 0.0811205 
-0.0438669 0.0108246 0.0812038 -0.0310924 0.00993771 0.0811207 0.00470823 0.0100677 0.0815223 
-0.0288569 0.0153527 0.0811205 -0.00860417 0.014097 0.0818381 0.00480243 0.0150329 0.0821183 
0.0175186 0.0152319 0.0811204 0.0276593 0.0154163 0.0814294 0.0411093 0.0149166 0.0823905 
-0.0444883 0.0167865 0.0821169 -0.0348151 0.0185198 0.0811179 -0.0262772 0.0186031 0.081124 
0.00175602 0.0177694 0.0813303 0.0100626 0.0169367 0.0821612 0.0277618 0.0187477 0.0815347 
0.0307796 0.0177782 0.0816753 0.0357649 0.0159788 0.0821181 -0.0371758 0.0226662 0.0812909 
-0.0246411 0.0211479 0.0811755 -0.0160695 0.0228488 0.0821219 -0.00281212 0.0200902 0.0811386 
0.00205834 0.0209214 0.0811758 0.00608316 0.0221168 0.0822173 0.0249118 0.0220009 0.081552 
0.0365838 0.0198625 0.0815446 0.0414475 0.0219812 0.0820796 -0.0413733 0.0232353 0.0821183 
-0.00564633 0.0225238 0.0826129 0.0116171 0.0263669 0.0811205 0.0257497 0.0256637 0.0811202 
0.0287535 0.0249903 0.0817924 -0.0394432 0.0279918 0.0821183 -0.0344502 0.0302471 0.0824837 
-0.0294444 0.0308542 0.0821637 0.0021537 0.0310572 0.0823818 0.0117448 0.0314329 0.0814698 
0.0290061 0.0312355 0.0823278 -0.0367721 0.0333196 0.081291 -0.0300443 0.0352647 0.0812206 
0.0175852 0.0359317 0.0823965 0.023253 0.0349551 0.0824248 0.0306177 0.0344767 0.0811207 
-0.024416 0.0377833 0.0821183 0.00305368 0.0375666 0.0813193 0.00612464 0.0380689 0.081469 
0.00912055 0.0379318 0.0816192 0.0195172 0.0403213 0.0821172 0.0302165 0.0385516 0.0810908 
0.0102775 0.0418554 0.0821226 0.0258716 0.0411191 0.0821227 -0.0144073 0.0443734 0.0811205 
0.00552893 0.0448219 0.08212 0.012567 0.0463279 0.0821489 0.0174733 0.0451778 0.0821183 
-0.0129028 0.0477311 0.0812459 -0.00112054 0.047194 0.082143 0.00336447 0.0491407 0.0811205 
-0.000949783 -0.0452466 0.0842285 -0.0211224 -0.0412532 0.0849491 0.0121168 -0.0424451 0.084838 
-0.0288169 -0.0385159 0.0848733 -0.00115898 -0.0384301 0.0824454 0.0255011 -0.0388593 0.0827813 
-0.022096 -0.0357891 0.0835325 -0.0118976 -0.0359941 0.0826501 -0.0219492 -0.0281761 0.0827669 
0.0377607 -0.0292621 0.084136 -0.0392204 -0.02536 0.0848419 -0.0365465 -0.0192529 0.0848197 
-0.0135279 -0.0207982 0.082758 0.02915 -0.0197781 0.0828291 -0.0330629 -0.0157796 0.0854652 
-0.0207186 -0.0191097 0.0846961 0.038801 -0.0108148 0.0849888 -0.0100384 -0.0117035 0.0823343 
0.0433633 -0.0107829 0.0829987 -0.0284003 -0.00887582 0.08493 0.0286689 -0.00921829 0.0821502 
-0.0192342 -0.00434823 0.0834585 0.0183547 -0.00239002 0.0841378 -0.0348298 0.00331505 0.0847489 
0.0422372 0.00296094 0.0840347 -0.00093484 0.00718919 0.0842678 -0.0161543 0.0118322 0.0843594 
-0.00829044 0.0103 0.0830873 0.0460862 0.00898712 0.082646 -0.00524847 0.014863 0.0855956 
-0.000670676 0.014049 0.0831907 0.0444686 0.0119993 0.0851108 -0.0340726 0.020119 0.0847037 
0.0183404 0.0202606 0.0829604 -0.0295563 0.023792 0.0831217 -0.0230207 0.0254653 0.0850395 
-0.013968 0.0255815 0.0842096 0.0131643 0.0233064 0.0843059 0.0167931 0.0249167 0.0834773 
0.0375565 0.0255376 0.0825811 -0.0104111 0.0272088 0.0851786 -0.0154288 0.031265 0.0823812 
-0.00594085 0.0299362 0.0829747 0.0359607 0.0327769 0.0842627 -0.00302473 0.035585 0.0838254 
0.0079654 0.0374248 0.0847984 -0.00522521 0.0424092 0.0824937 0.00421775 0.0429615 0.0854188 
-0.00705853 0.048791 0.0827807 -0.0138972 -0.0433837 0.0878412 0.00851002 -0.0435401 0.0867674 
0.0179561 -0.0434085 0.086746 -0.0278811 -0.0335155 0.084734 0.00230119 -0.0336949 0.0896712 
0.0310925 -0.0346643 0.0865225 0.0333471 -0.033584 0.0881234 -0.00807547 -0.0333803 0.0865501 
0.0163604 -0.0323897 0.0881501 -0.0303984 -0.0283913 0.0861406 0.0138253 -0.0256787 0.0854678 
-0.0419222 -0.0218809 0.0873714 -0.00648953 -0.0220096 0.0889878 0.00710847 -0.0193674 0.0890354 
0.0426833 -0.0193455 0.086481 -0.0115674 -0.0179313 0.0866857 -0.0171336 -0.0130849 0.0846175 
0.0142843 -0.0150409 0.0897381 -0.0133537 -0.012392 0.0850315 0.0312708 -0.0117944 0.0869053 
-0.00154237 -0.00647016 0.0835668 -0.0484129 -0.00116594 0.0876217 0.0136153 8.11161e-05 0.0856543 
-0.039428 0.00528335 0.0868929 -0.0277659 0.00717814 0.0864082 -0.00391299 0.00411583 0.0861862 
0.00333587 0.00764269 0.0865813 0.0344388 0.00756472 0.0871333 -0.0453377 0.00967746 0.0875171 
-0.0175996 0.0180174 0.0899003 -0.0443429 0.0199945 0.0859445 0.0039942 0.0235512 0.0882691 
0.024797 0.0239003 0.0886559 -0.00549862 0.0271716 0.0859709 -0.0366773 0.0317345 0.0868989 
0.0332583 0.0316374 0.0872306 -0.0299958 0.0370971 0.0860696 -0.0170202 0.0341524 0.0894377 
-0.00822828 0.0339288 0.0901034 -0.00178146 0.0358932 0.0899694 0.000234509 0.04004 0.0871042 
-0.0118313 0.0450406 0.0859491 -0.00181526 0.0444847 0.0875071 -0.0264196 -0.0362353 0.0888613 
0.00774249 -0.0311549 0.0912322 0.0134134 -0.0253712 0.0893024 0.0246833 -0.0250917 0.0910956 
-0.0294183 -0.0211963 0.0884105 0.0030267 -0.0134809 0.0896403 -0.0444335 -0.00537728 0.0894706 
-0.0401572 0.00189669 0.0906813 -0.0401033 0.0102329 0.0916212 0.00241891 0.0187945 0.0912087 
0.0262197 0.0338431 0.0901025 -0.0214267 -0.0345636 0.0935001 0.0298504 -0.0251655 0.090019 
-0.0213877 -0.0226463 0.0905371 -0.00046866 0.00191015 0.0949805 -0.0279413 0.00632229 0.0958492 
-0.00193649 0.00855441 0.093318 0.0320143 0.0142932 0.0957212 0.017494 0.0195812 0.0944559 
-0.0232467 0.0225969 0.0935097 -0.00552307 0.0325941 0.0948987 0.0168114 0.04677 0.093003 
-0.0134248 -0.044393 0.0965222 0.000701606 -0.0417813 0.0976363 -0.0215521 -0.0378562 0.0955518 
0.00623905 -0.0359999 0.0966811 0.00582446 -0.0167578 0.0972836 -0.0385467 -0.015361 0.0995688 
-0.0187352 0.0233743 0.0969166 0.006248 0.0315313 0.0996824 -0.0146994 0.03534 0.0939039 
-0.0098689 0.0337273 0.0966407 -0.000740023 -0.0360659 0.098649 -0.0257539 -0.0226995 0.101602 
0.000861536 -0.00913537 0.0973275 0.0120571 0.00766009 0.100709 -0.0349818 0.0173921 0.100578 
0.0410214 0.0204497 0.0989147 0.0207493 0.0245578 0.103444 -0.0119902 -0.0454651 0.10994 
0.00275579 -0.0260837 0.107976 -0.0383368 -0.0209064 0.107891 -0.0428708 -0.011805 0.109345 
-0.0104751 0.0201344 0.108508 -0.0120979 -0.0281602 0.112293 -0.0123717 -0.0198646 0.113193 
0.0425117 -0.0144958 0.11248 -0.00997197 0.0302713 0.110608 -0.0304066 -0.0102227 0.117239 
-0.0262528 0.0167369 0.114959 0.0141318 -0.0363161 0.122367 -0.0324409 -0.00912026 0.122727 
0.0413691 -0.00199891 0.12383 -0.0193866 -0.0345939 0.126232 0.0114178 -0.033482 0.124968 
0.0383619 -0.0270098 0.126385 0.0331115 -0.00539058 0.12763 -0.0325525 -0.0276598 0.129344 
-0.0379676 0.0125129 0.131881 -0.0104894 0.0181699 0.128346 0.00828213 -0.0403312 0.134317 
-0.0332879 -0.0233031 0.131658 0.0366476 0.0176285 0.136481 0.0165558 0.0211279 0.134884 
0.00543924 -0.0314838 0.136131 -0.0208094 0.0364899 0.137562 -0.0246293 0.0182181 0.139955 
-0.00129873 0.0407719 0.141511 -0.026454 -0.0245447 0.142922 0.0285641 -0.0367188 0.148453 
-0.0271281 0.000814539 0.148684 -0.0185276 0.00882339 0.148306 0.0348469 -0.0314956 0.153333 
0.0422706 0.00333544 0.149414 0.000721647 0.0249688 0.152023 -0.0184277 0.0295787 0.15171 
0.00400051 -0.0422163 0.154961 0.00761906 -0.0184204 0.156232 0.0276988 0.0381398 0.155632 
0.00888258 0.0172116 0.159346 -0.0138045 0.027268 0.157635 -0.0365539 -0.00567484 0.161215 
-0.0341341 0.0119744 0.16265 0.0049521 0.0250522 0.162195 0.00287641 0.0351493 0.162638 
0.0170816 0.0409748 0.160952 0.012656 -0.0227418 0.165563 -0.0182303 -0.0172101 0.164298 
0.0123061 0.0292579 0.163981 0.00133987 -0.008964 0.167714 0.0458197 0.00694681 0.172011 
-0.0239118 0.0115143 0.169594 -0.0289214 -0.0224315 0.171796 -0.0366668 -0.00275727 0.176806 
-0.0273586 0.0110109 0.177259 0.0320668 0.018251 0.175405 0.0372579 0.0227937 0.17779 
-0.0228705 -0.0279163 0.1793 -0.0125232 -0.00201753 0.178151 0.000876286 -0.00502923 0.179969 
0.0289076 0.0266002 0.179457 -0.0181314 -0.0365099 0.183678 0.0453681 -0.00116313 0.182703 
0.0484002 0.00350133 0.184915 0.0023056 -0.0155536 0.188534 0.0389407 -0.00634779 0.18565 
-0.00309695 -0.00137909 0.188109 0.0112996 0.0341587 0.185754 0.00410244 0.0371437 0.184851 
0.0312108 -0.0145967 0.19275 -0.0348257 -0.00483668 0.191475 0.0434712 -0.00423159 0.188688 
-0.00796785 0.0153062 0.191371 -0.037247 -0.0235961 0.192453 0.0391874 0.00736359 0.195175 
-0.0124228 0.0359989 0.191892 0.0133705 -0.0223305 0.197357 -0.0228464 -0.00559641 0.195657 
0.0390561 -0.00349122 0.199913 0.000748662 0.00293603 0.198394 0.0336921 0.00493788 0.200947 
0.00642984 0.0108519 0.197072 0.00330523 -0.0250089 0.200346 0.00623372 0.00501736 0.20152 
0.00296838 0.00822408 0.202433 0.0307706 0.00703116 0.202783 0.0129949 -0.0103278 0.207319 
0.00227137 -0.0336236 0.20737 -0.0235745 -0.00730154 0.208823 -0.015378 0.00127119 0.207728 
0.00281098 -0.0339228 0.212966 0.00611988 -0.0222591 0.210184 0.00783772 -0.0166741 0.209639 
0.0399978 -0.00278466 0.21229 -0.0218177 0.0172583 0.212287 -0.0220288 -0.0361214 0.214843 
0.0203442 -0.0285468 0.214208 -0.0263638 0.011884 0.21426 0.0123094 0.0175963 0.214957 
-0.00399598 0.0224229 0.215097 -0.0444439 -0.00601372 0.217233 -0.00621866 0.0299949 0.217125 
0.0121843 -0.019531 0.221803 -0.0283224 -0.000512593 0.220709 0.0373051 0.00420623 0.22077 
0.0213853 0.0055008 0.222168 -0.00499611 0.0158862 0.221352 -0.00228932 0.0314684 0.222245 
0.0248347 -0.0165705 0.224561 0.0319623 -0.0126898 0.224679 -0.0420496 -0.00748094 0.227385 
-0.0192166 0.0328101 0.227113 0.0101063 -0.0287233 0.229497 0.0378325 -0.00278681 0.227631 
0.0026896 -0.0431779 0.232595 0.0324133 -0.0218036 0.234282 0.00244787 -0.0184176 0.232696 
-0.0239733 0.00659914 0.234467 0.0301274 0.0119527 0.231818 -0.0186207 0.015316 0.231215 
-0.0297208 0.0321235 0.231533 0.0151321 -0.0388474 0.2349 0.0120071 -0.0184136 0.237391 
-0.0192635 0.00970267 0.236797 -0.0207231 0.0361573 0.236679 0.00446813 0.0346603 0.236038 
0.0187888 -0.036103 0.244019 -0.0188877 0.0132342 0.242458 -0.0346659 0.0259845 0.24493 
-0.00675232 -0.0341908 0.248584 0.00910245 -0.0264534 0.245439 0.00509804 -0.0122439 0.245438 
0.0397906 -0.00569887 0.248686 0.0226004 0.0296669 0.245794 -0.0306557 0.0307859 0.245988 
0.00514247 -0.00729011 0.251417 -0.0131665 -0.00041517 0.249331 0.0339171 0.00678579 0.251629 
0.0263239 0.0114826 0.249816 -0.010093 0.0189857 0.249809 0.0383596 0.0195173 0.252072 
-0.00986964 0.0234333 0.249212 -0.0098011 -0.0234588 0.254308 0.0115072 0.0275582 0.25583 
0.0124456 0.0361137 0.255083 -0.0159786 0.0418657 0.253804 0.0106157 -0.0110129 0.259055 
0.00181328 0.0012361 0.261836 1.88277e-05 0.0106236 0.260349 -0.0220649 0.0240844 0.259827 
-0.0226352 0.037476 0.260054 
VERTICES 421 842
1 0 
1 1 
1 2 
1 3 
1 4 
1 5 
1 6 
1 7 
1 8 
1 9 
1 10 
1 11 
1 12 
1 13 
1 14 
1 15 
1 16 
1 17 
1 18 
1 19 
1 20 
1 21 
1 22 
1 23 
1 24 
1 25 
1 26 
1 27 
1 28 
1 29 
1 30 
1 31 
1 32 
1 33 
1 34 
1 35 
1 36 
1 37 
1 38 
1 39 
1 40 
1 41 
1 42 
1 43 
1 44 
1 45 
1 46 
1 47 
1 48 
1 49 
1 50 
1 51 
1 52 
1 53 
1 54 
1 55 
1 56 
1 57 
1 58 
1 59 
1 60 
1 61 
1 62 
1 63 
1 64 
1 65 
1 66 
1 67 
1 68 
1 69 
1 70 
1 71 
1 72 
1 73 
1 74 
1 75 
1 76 
1 77 
1 78 
1 79 
1 80 
1 81 
1 82 
1 83 
1 84 
1 85 
1 86 
1 87 
1 88 
1 89 
1 90 
1 91 
1 92 
1 93 
1 94 
1 95 
1 96 
1 97 
1 98 
1 99 
1 100 
1 101 
1 102 
1 103 
1 104 
1 105 
1 106 
1 107 
1 108 
1 109 
1 110 
1 111 
1 112 
1 113 
1 114 
1 115 
1 116 
1 117 
1 118 
1 119 
1 120 
1 121 
1 122 
1 123 
1 124 
1 125 
1 126 
1 127 
1 128 
1 129 
1 130 
1 131 
1 132 
1 133 
1 134 
1 135 
1 136 
1 137 
1 138 
1 139 
1 140 
1 141 
1 142 
1 143 
1 144 
1 145 
1 146 
1 147 
1 148 
1 149 
1 150 
1 151 
1 152 
1 153 
1 154 
1 155 
1 156 
1 157 
1 158 
1 159 
1 160 
1 161 
1 162 
1 163 
1 164 
1 165 
1 166 
1 167 
1 168 
1 169 
1 170 
1 171 
1 172 
1 173 
1 174 
1 175 
1 176 
1 177 
1 178 
1 179 
1 180 
1 181 
1 182 
1 183 
1 184 
1 185 
1 186 
1 187 
1 188 
1 189 
1 190 
1 191 
1 192 
1 193 
1 194 
1 195 
1 196 
1 197 
1 198 
1 199 
1 200 
1 201 
1 202 
1 203 
1 204 
1 205 
1 206 
1 207 
1 208 
1 209 
1 210 
1 211 
1 212 
1 213 
1 214 
1 215 
1 216 
1 217 
1 218 
1 219 
1 220 
1 221 
1 222 
1 223 
1 224 
1 225 
1 226 
1 227 
1 228 
1 229 
1 230 
1 231 
1 232 
1 233 
1 234 
1 235 
1 236 
1 237 
1 238 
1 239 
1 240 
1 241 
1 242 
1 243 
1 244 
1 245 
1 246 
1 247 
1 248 
1 249 
1 250 
1 251 
1 252 
1 253 
1 254 
1 255 
1 256 
1 257 
1 258 
1 259 
1 260 
1 261 
1 262 
1 263 
1 264 
1 265 
1 266 
1 267 
1 268 
1 269 
1 270 
1 271 
1 272 
1 273 
1 274 
1 275 
1 276 
1 277 
1 278 
1 279 
1 280 
1 281 
1 282 
1 283 
1 284 
1 285 
1 286 
1 287 
1 288 
1 289 
1 290 
1 291 
1 292 
1 293 
1 294 
1 295 
1 296 
1 297 
1 298 
1 299 
1 300 
1 301 
1 302 
1 303 
1 304 
1 305 
1 306 
1 307 
1 308 
1 309 
1 310 
1 311 
1 312 
1 313 
1 314 
1 315 
1 316 
1 317 
1 318 
1 319 
1 320 
1 321 
1 322 
1 323 
1 324 
1 325 
1 326 
1 327 
1 328 
1 329 
1 330 
1 331 
1 332 
1 333 
1 334 
1 335 
1 336 
1 337 
1 338 
1 339 
1 340 
1 341 
1 342 
1 343 
1 344 
1 345 
1 346 
1 347 
1 348 
1 349 
1 350 
1 351 
1 352 
1 353 
1 354 
1 355 
1 356 
1 357 
1 358 
1 359 
1 360 
1 361 
1 362 
1 363 
1 364 
1 365 
1 366 
1 367 
1 368 
1 369 
1 370 
1 371 
1 372 
1 373 
1 374 
1 375 
1 376 
1 377 
1 378 
1 379 
1 380 
1 381 
1 382 
1 383 
1 384 
1 385 
1 386 
1 387 
1 388 
1 389 
1 390 
1 391 
1 392 
1 393 
1 394 
1 395 
1 396 
1 397 
1 398 
1 399 
1 400 
1 401 
1 402 
1 403 
1 404 
1 405 
1 406 
1 407 
1 408 
1 409 
1 410 
1 411 
1 412 
1 413 
1 414 
1 415 
1 416 
1 417 
1 418 
1 419 
1 420 

POINT_DATA 421
FIELD FieldData 7
id 1 421 int
207 199 11 51 100 50 187 18 2 
164 48 96 59 180 191 119 67 19 
92 110 58 6 250 90 46 77 173 
124 213 24 76 184 80 74 88 4 
237 43 134 149 39 62 30 95 72 
65 12 138 153 218 49 266 32 84 
93 86 15 154 70 45 69 111 13 
9 176 102 263 122 14 36 89 22 
159 10 82 1 57 53 204 131 179 
85 20 112 125 212 40 35 241 145 
144 61 150 254 106 23 265 143 83 
8 5 127 71 104 174 219 201 29 
232 73 226 200 41 17 68 91 60 
103 47 148 194 26 37 121 114 206 
129 27 99 31 198 135 52 81 16 
123 152 56 151 262 87 211 161 208 
132 113 94 140 38 259 193 98 115 
264 238 55 128 168 175 54 205 146 
160 257 195 28 130 245 3 267 107 
158 120 25 108 167 246 42 66 118 
133 101 196 116 243 7 136 171 44 
182 169 252 240 216 228 157 233 192 
185 249 202 221 33 260 222 275 109 
280 156 247 197 126 141 224 227 215 
214 105 139 234 190 210 78 236 235 
242 244 248 170 251 269 137 272 63 
274 64 261 209 79 188 142 21 279 
271 230 34 189 75 155 117 147 186 
178 220 278 166 163 183 270 181 281 
177 273 253 276 97 225 162 282 172 
293 286 294 292 290 287 288 285 165 
283 303 304 305 299 300 289 229 297 
268 298 239 306 255 301 296 217 295 
231 310 277 314 309 203 315 313 317 
291 316 284 321 308 330 322 307 302 
328 319 331 320 323 223 325 329 341 
335 339 256 338 333 337 326 342 327 
312 258 332 336 344 340 353 356 334 
311 352 348 349 346 351 324 357 318 
354 345 355 347 350 343 362 369 368 
366 367 359 363 370 358 364 365 361 
360 382 379 375 383 373 374 380 378 
371 377 381 376 396 372 394 387 392 
395 393 388 386 390 384 385 391 389 
398 405 403 407 400 408 406 401 404 
421 409 418 399 397 420 402 412 411 
419 414 416 410 413 415 417 
type 1 421 int
1 1 1 1 1 1 1 1 1 
1 1 1 1 1 1 1 1 1 
1 1 1 1 1 1 1 1 1 
1 1 1 1 1 1 1 1 1 
1 1 1 1 1 1 1 1 1 
1 1 1 1 1 1 1 1 1 
1 1 1 1 1 1 1 1 1 
1 1 1 1 1 1 1 1 1 
1 1 1 1 1 1 1 1 1 
1 1 1 1 1 1 1 1 1 
1 1 1 1 1 1 1 1 1 
1 1 1 1 1 1 1 1 1 
1 1 1 1 1 1 1 1 1 
1 1 1 1 1 1 1 1 1 
1 1 1 1 1 1 1 1 1 
1 1 1 1 1 1 1 1 1 
1 1 1 1 1 1 1 1 1 
1 1 1 1 1 1 1 1 1 
1 1 1 1 1 1 1 1 1 
1 1 1 1 1 1 1 1 1 
1 1 1 1 1 1 1 1 1 
1 1 1 1 1 1 1 1 1 
1 1 1 1 1 1 1 1 1 
1 1 1 1 1 1 1 1 1 
1 1 1 1 1 1 1 1 1 
1 1 1 1 1 1 1 1 1 
1 1 1 1 1 1 1 1 1 
1 1 1 1 1 1 1 1 1 
1 1 1 1 1 1 1 1 1 
1 1 1 1 1 1 1 1 1 
1 1 1 1 1 1 1 1 1 
1 1 1 1 1 1 1 1 1 
1 1 1 1 1 1 1 1 1 
1 1 1 1 1 1 1 1 1 
1 1 1 1 1 1 1 1 1 
1 1 1 1 1 1 1 1 1 
1 1 1 1 1 1 1 1 1 
1 1 1 1 1 1 1 1 1 
1 1 1 1 1 1 1 1 1 
1 1 1 1 1 1 1 1 1 
1 1 1 1 1 1 1 1 1 
1 1 1 1 1 1 1 1 1 
1 1 1 1 1 1 1 1 1 
1 1 1 1 1 1 1 1 1 
1 1 1 1 1 1 1 1 1 
1 1 1 1 1 1 1 1 1 
1 1 1 1 1 1 1 
i 3 421 int
0 0 0 0 0 0 0 0 0 
0 0 0 0 0 0 0 0 0 
0 0 0 0 0 0 0 0 0 
0 0 0 0 0 0 0 0 0 
0 0 0 0 0 0 0 0 0 
0 0 0 0 0 0 0 0 0 
0 0 0 0 0 0 0 0 0 
0 0 0 0 0 0 0 0 0 
0 0 0 0 0 0 0 0 0 
0 0 0 0 0 0 0 0 0 
0 0 0 0 0 0 0 0 0 
0 0 0 0 0 0 0 0 0 
0 0 0 0 0 0 0 0 0 
0 0 0 0 0 0 0 0 0 
0 0 0 0 0 0 0 0 0 
0 0 0 0 0 0 0 0 0 
0 0 0 0 0 0 0 0 0 
0 0 0 0 0 0 0 0 0 
0 0 0 0 0 0 0 0 0 
0 0 0 0 0 0 0 0 0 
0 0 0 0 0 0 0 0 0 
0 0 0 0 0 0 0 0 0 
0 0 0 0 0 0 0 0 0 
0 0 0 0 0 0 0 0 0 
0 0 0 0 0 0 0 0 0 
0 0 0 0 0 0 0 0 0 
0 0 0 0 0 0 0 0 0 
0 0 0 0 0 0 0 0 0 
0 0 0 0 0 0 0 0 0 
0 0 0 0 0 0 0 0 0 
0 0 0 0 0 0 0 0 0 
0 0 0 0 0 0 0 0 0 
0 0 0 0 0 0 0 0 0 
0 0 0 0 0 0 0 0 0 
0 0 0 0 0 0 0 0 0 
0 0 0 0 0 0 0 0 0 
0 0 0 0 0 0 0 0 0 
0 0 0 0 0 0 0 0 0 
0 0 0 0 0 0 0 0 0 
0 0 0 0 0 0 0 0 0 
0 0 0 0 0 0 0 0 0 
0 0 0 0 0 0 0 0 0 
0 0 0 0 0 0 0 0 0 
0 0 0 0 0 0 0 0 0 
0 0 0 0 0 0 0 0 0 
0 0 0 0 0 0 0 0 0 
0 0 0 0 0 0 0 0 0 
0 0 0 0 0 0 0 0 0 
0 0 0 0 0 0 0 0 0 
0 0 0 0 0 0 0 0 0 
0 0 0 0 0 0 0 0 0 
0 0 0 0 0 0 0 0 0 
0 0 0 0 0 0 0 0 0 
0 0 0 0 0 0 0 0 0 
0 0 0 0 0 0 0 0 0 
0 0 0 0 0 0 0 0 0 
0 0 0 0 0 0 0 0 0 
0 0 0 0 0 0 0 0 0 
0 0 0 0 0 0 0 0 0 
0 0 0 0 0 0 0 0 0 
0 0 0 0 0 0 0 0 0 
0 0 0 0 0 0 0 0 0 
0 0 0 0 0 0 0 0 0 
0 0 0 0 0 0 0 0 0 
0 0 0 0 0 0 0 0 0 
0 0 0 0 0 0 0 0 0 
0 0 0 0 0 0 0 0 0 
0 0 0 0 0 0 0 0 0 
0 0 0 0 0 0 0 0 0 
0 0 0 0 0 0 0 0 0 
0 0 0 0 0 0 0 0 0 
0 0 0 0 0 0 0 0 0 
0 0 0 0 0 0 0 0 0 
0 0 0 0 0 0 0 0 0 
0 0 0 0 0 0 0 0 0 
0 0 0 0 0 0 0 0 0 
0 0 0 0 0 0 0 0 0 
0 0 0 0 0 0 0 0 0 
0 0 0 0 0 0 0 0 0 
0 0 0 0 0 0 0 0 0 
0 0 0 0 0 0 0 0 0 
0 0 0 0 0 0 0 0 0 
0 0 0 0 0 0 0 0 0 
0 0 0 0 0 0 0 0 0 
0 0 0 0 0 0 0 0 0 
0 0 0 0 0 0 0 0 0 
0 0 0 0 0 0 0 0 0 
0 0 0 0 0 0 0 0 0 
0 0 0 0 0 0 0 0 0 
0 0 0 0 0 0 0 0 0 
0 0 0 0 0 0 0 0 0 
0 0 0 0 0 0 0 0 0 
0 0 0 0 0 0 0 0 0 
0 0 0 0 0 0 0 0 0 
0 0 0 0 0 0 0 0 0 
0 0 0 0 0 0 0 0 0 
0 0 0 0 0 0 0 0 0 
0 0 0 0 0 0 0 0 0 
0 0 0 0 0 0 0 0 0 
0 0 0 0 0 0 0 0 0 
0 0 0 0 0 0 0 0 0 
0 0 0 0 0 0 0 0 0 
0 0 0 0 0 0 0 0 0 
0 0 0 0 0 0 0 0 0 
0 0 0 0 0 0 0 0 0 
0 0 0 0 0 0 0 0 0 
0 0 0 0 0 0 0 0 0 
0 0 0 0 0 0 0 0 0 
0 0 0 0 0 0 0 0 0 
0 0 0 0 0 0 0 0 0 
0 0 0 0 0 0 0 0 0 
0 0 0 0 0 0 0 0 0 
0 0 0 0 0 0 0 0 0 
0 0 0 0 0 0 0 0 0 
0 0 0 0 0 0 0 0 0 
0 0 0 0 0 0 0 0 0 
0 0 0 0 0 0 0 0 0 
0 0 0 0 0 0 0 0 0 
0 0 0 0 0 0 0 0 0 
0 0 0 0 0 0 0 0 0 
0 0 0 0 0 0 0 0 0 
0 0 0 0 0 0 0 0 0 
0 0 0 0 0 0 0 0 0 
0 0 0 0 0 0 0 0 0 
0 0 0 0 0 0 0 0 0 
0 0 0 0 0 0 0 0 0 
0 0 0 0 0 0 0 0 0 
0 0 0 0 0 0 0 0 0 
0 0 0 0 0 0 0 0 0 
0 0 0 0 0 0 0 0 0 
0 0 0 0 0 0 0 0 0 
0 0 0 0 0 0 0 0 0 
0 0 0 0 0 0 0 0 0 
0 0 0 0 0 0 0 0 0 
0 0 0 0 0 0 0 0 0 
0 0 0 0 0 0 0 0 0 
0 0 0 0 0 0 0 0 0 
0 0 0 0 0 0 0 0 0 
0 0 0 0 0 0 0 0 0 
0 0 0 0 0 0 0 0 0 
0 0 0 
v 3 421 double
-0.284587 0.0111527 -0.00983872 -0.00986068 0.0254208 0.00655368 -0.0144403 -0.0370173 -3.28383e-07 
-0.170918 -0.120272 -0.0403993 0.0579451 -0.235873 -0.00746571 -0.0888546 -0.104253 0.014709 
-0.0353699 0.0242046 -0.270277 0.0530394 0.0391513 1.08628e-08 0.0836545 -0.0145954 0.0538059 
0.0777293 -0.00131783 -0.0496173 -0.00507446 -0.0361468 -2.01625e-05 0.0543525 -0.0942247 -0.0185462 
0.107188 -0.122808 -0.000109656 -0.32781 0.0356537 -0.44043 0.038004 0.0362118 -0.00186989 
-0.0929215 -0.062918 0.037323 0.074666 0.0669687 0.0279817 0.0485027 0.069755 6.72594e-13 
0.0335252 0.0506546 -0.0144407 0.0379683 0.0865208 0.00207213 0.0379176 0.022046 6.72593e-13 
-0.132462 0.0614174 0.020095 -0.163437 0.149848 0.208909 -0.160591 0.00451424 0.010477 
-0.0419756 0.0250051 0.0118807 -0.0343107 -0.0203949 -0.0217299 -0.180083 0.0586614 -9.76837e-09 
-0.259606 0.283811 0.0180105 0.131693 0.122364 0.00523818 -0.012795 -0.0150294 -0.00107026 
-0.160154 0.120528 -0.153662 0.251093 0.100762 -0.628193 0.00552917 0.0801062 -0.0163182 
0.151499 -0.110418 -0.100476 -0.465577 -0.125699 -0.363552 -0.0303964 -0.002205 -0.0251041 
-0.341166 0.273861 -0.0832915 -0.222231 -0.0701165 0.00544076 -0.017748 0.0275488 0.000884264 
-0.208641 -0.00322969 0.00146842 -0.0726198 0.0533993 7.116e-11 0.053722 -0.00898418 0.0226284 
0.0034384 -0.0699841 -1.72374e-08 -0.0549704 0.0675517 0.0822991 0.352512 -0.0722072 -8.59372e-14 
0.0297926 -0.0621426 -0.00475516 -0.114786 -0.232576 0.507066 -0.00563542 -0.0594342 0.0108303 
-0.00697472 -0.0616379 -0.00566409 0.285341 -0.0278369 0.229162 -0.079261 -0.0724729 0.106172 
-0.235006 -0.10378 0.518941 -0.0248781 0.0393261 0.0907394 0.26184 0.0793979 0.0359293 
0.179942 0.184353 0.000124454 -0.00719832 0.103664 -0.0363019 0.00821106 -0.0398669 0.00122404 
0.0124933 -0.0296692 -0.000498631 0.00484193 -0.0434606 1.01682e-12 0.0367254 0.00265986 -0.001917 
-0.171163 -0.0424978 0.0666522 -0.104233 0.0576986 -0.000428445 0.0843048 -0.0392073 -0.0265948 
0.00973618 -0.0780118 -6.54834e-13 -0.113019 -0.288771 0.084903 0.0630478 -0.159125 0.0586712 
-0.327412 -0.174776 0.0795006 0.0884161 0.0573462 6.06378e-13 0.0218152 -0.107036 0.0534071 
0.137374 -0.0917175 0.108774 -0.0467792 0.114476 -0.116102 -0.0471236 0.0125939 -4.02126e-13 
0.466571 -0.0968118 0.193165 0.131239 -0.151307 0.0405658 0.00833092 -0.0958003 3.00675e-13 
-0.0523305 0.0917059 0.0375066 0.0422667 -0.0322558 -0.00207856 -0.0478671 0.0599191 2.04789e-11 
0.0531189 0.0716203 -0.204678 0.00145452 -0.247554 0.0665093 -0.229172 0.000303835 1.40154e-09 
-0.162399 -0.147111 -0.0206315 -0.0973943 -0.036409 0.00209333 0.318231 0.0927657 0.0803891 
-0.00837617 -0.0319071 -3.38781e-13 -0.310033 0.125523 0.125769 0.118774 0.0795239 -1.95275e-05 
-0.0112295 -0.128397 -0.00229658 -0.166891 -0.100993 -0.479713 -0.048771 0.0708621 0.10593 
0.0843124 0.0764317 -7.7093e-05 -0.0126053 0.043554 0.00521843 -0.187224 -0.0563319 0.00769384 
0.0915431 -0.0298368 0.0279794 0.00601075 -0.0244029 0.0264269 -0.0503908 0.0693225 0.101819 
-0.596653 -0.579028 -0.382036 -0.0586619 -0.0436639 0.000561978 0.00504148 0.00316377 -0.13636 
-0.132534 -0.0524087 0.0380306 -0.0336696 0.0295979 0.00836365 0.0040183 -0.193541 0.0350556 
-0.0805224 0.1017 -0.0834572 0.0986775 -0.293432 -0.0350582 0.0266089 0.19112 0.140508 
-0.0101011 -0.0255091 0.0804131 -0.292757 -0.074467 0.16378 0.00390652 0.020894 0.000613623 
0.0148663 -0.195452 0.159793 0.0458711 0.0639289 1.76046e-05 0.0893506 -0.0262245 -0.000316694 
0.149892 -0.0509763 -0.046242 0.0104467 0.0191646 -2.24227e-05 -0.0698244 -0.0930624 0.0336081 
-0.0667561 0.0338991 -0.0261496 -0.260763 0.00460061 0.0632209 -0.137095 0.054572 -0.148248 
-0.0642487 0.0466952 0.0647577 -0.0594799 -0.0840099 -0.000183694 -0.0869368 0.0265588 -0.185631 
-0.134152 -0.0600593 0.0669177 -0.00225263 0.118395 0.0448119 -0.0502377 0.0403215 0.000116591 
0.0935408 0.00886432 7.47502e-06 0.0509045 0.192135 -0.0230019 0.116733 0.1154 -0.0619699 
0.132221 -0.0586976 -0.194375 0.0476616 0.0038875 0.00174377 -0.0355906 -0.0892934 -0.0369442 
0.0347318 -0.00936228 -0.0140083 0.113459 0.0818703 -0.0157016 0.0928874 -0.00847312 -1.94612e-05 
0.0127918 -0.012052 -0.000382155 0.0355025 0.00303826 -0.00173591 0.0354283 -0.0263855 -1.82726e-07 
0.0319484 0.131802 -0.123892 -0.0381032 -0.0878135 -0.162813 0.0221009 0.0169285 -2.27661e-14 
0.14575 -0.142844 0.152784 -0.274184 -0.336055 0.148828 0.036292 0.150176 0.0667711 
-0.161491 0.178113 -0.230961 0.0332298 -0.15775 -0.0242085 0.127429 -0.0313532 0.0647149 
0.0262419 0.105011 -0.147582 0.000964873 0.0469653 -0.186572 0.0507295 -0.0482961 -0.0381484 
-0.0255444 0.237767 0.154139 0.100656 0.0205311 0.0918276 -0.110326 0.167575 0.340124 
-0.0610484 -0.16435 -0.0814228 0.0129554 0.0943964 0.0209581 0.0918758 0.26155 0.181309 
0.370146 -0.222126 0.00249072 0.488037 0.922256 -0.378962 0.234478 -0.0587218 -0.320415 
-0.0172547 -0.0198579 0.0603782 0.0511616 -0.0786513 0.116517 0.402581 -0.267112 -0.34162 
0.0516819 0.0645637 -0.0830757 -0.150392 -0.218084 0.0808659 -0.017769 -0.218249 0.156653 
0.161408 -0.003749 0.15887 0.30415 -0.3288 -0.0180474 -0.378706 0.356058 -0.546922 
-0.0411517 0.000224068 0.0984151 0.0286094 -0.126919 -0.0300802 0.158556 -0.274244 0.291156 
0.169275 -0.00196255 0.100513 0.540251 -0.451871 -0.110898 -0.00423708 0.0861909 -0.00888019 
-0.258238 0.0662057 0.0169238 -0.106885 -0.00793468 -0.0530337 -0.233917 -0.0117932 0.158192 
0.0633516 0.139934 -0.129646 -0.385361 -0.5499 -0.0403794 -0.110553 -0.492573 0.129673 
0.02618 0.0560869 0.0245641 0.198947 0.00252296 -0.186021 -0.00141967 0.0158767 -0.086411 
0.085567 0.00680111 -0.0232378 0.0756096 0.109405 0.0106147 -0.17322 0.224121 0.19556 
0.293377 -0.11715 -0.00226807 0.36103 0.147147 -0.0120614 -0.0900325 -0.0854461 -0.0739093 
-0.0173057 -0.0412557 -0.0234051 0.0669923 -0.116869 -0.516295 -0.0689814 -0.268154 0.333824 
0.032838 0.144789 -0.148685 0.156764 -0.00129459 -1.00981 0 0 0.454964 
0.0650593 -0.104714 0.0749506 -0.0412348 -0.0196849 0.137955 -0.246786 -0.180712 -0.261702 
0.229762 0.314538 0.497891 0.0598193 0.146147 -0.435952 -0.0909542 -0.133435 -1.18261 
0.113516 -0.290012 -0.0447488 0 0 0.469083 0.112961 0.24447 0.187776 
0.0371735 0.308424 0.0645933 -0.130912 0.05709 -0.203323 0.315565 0.128704 0.681383 
0.569451 -0.240838 0.250894 0.063359 -0.00979381 -0.242853 0.449544 0.131023 -0.0473757 
0 0 -2.07189 0.025341 -0.0535342 -0.0300717 0.550038 -0.0118544 -1.33611 
0.118408 0.0854814 -0.0694712 -0.0949328 0.0269243 -0.054561 0.0340528 -0.789419 -0.707678 
0.286738 -0.220029 -0.144639 0.0255713 -0.28811 0.207471 -0.203153 0.358266 0.0345707 
-0.115404 0.00122915 0.252051 0.0511871 0.106845 -0.0244933 0.363334 0.347075 -0.158601 
-0.230646 -0.0106038 0.106743 0.317536 -0.225968 -0.105655 -0.0219366 -0.0731986 0.0822428 
-0.0519828 0.145257 0.0108695 0.435385 0.178805 -0.421656 -0.0847202 -0.0701851 0.173811 
-0.0865463 -0.242476 0.316471 0.189062 -0.274016 0.301467 -0.0264355 0.0503697 0.512273 
-0.0212059 0.0136725 -0.177485 0 0 0.501416 0.247926 -0.302224 -1.11407 
-0.106339 0.0466846 -0.35676 -0.243173 -0.085401 -1.11215 -0.0332957 0.265278 0.0812193 
0 0 -2.04884 0.0786962 0.0398619 -0.149324 -0.269579 -0.705435 -0.948006 
0.121742 -0.185612 -0.2087 -0.0486002 -0.177114 -0.023328 0.07024 0.287095 -0.102465 
0 0 -0.445316 -0.0508624 0.345371 -0.929583 0 0 -2.04109 
0 0 -2.03863 0 0 0.321928 -0.21416 -0.449296 -0.248291 
0.227217 0.506046 -0.123208 -0.134906 0.0268493 -0.321658 0 0 -0.335636 
-0.770856 -0.213878 -0.578371 -0.00688018 -0.0312827 -0.287347 -0.400013 0.146459 -0.283431 
0.231975 0.0500235 -0.0357934 0 0 0.274907 -0.0481807 -0.632018 -1.05776 
-0.0822837 -0.0334938 -0.226168 0 0 -0.239747 -0.0334952 0.0676009 -0.105755 
0.529644 0.0340136 -0.906176 0 0 -0.101089 -0.527044 0.182491 -1.32554 
-0.353673 0.140064 -0.441601 0 0 -1.9992 -0.31015 0.541062 -0.171013 
0 0 -2.00567 0.225448 -0.459575 0.0466514 0.284711 0.0592053 -0.712784 
0.0304269 -0.0274043 -1.47462 0 0 -1.97556 -0.0717436 0.125607 -1.08467 
0 0 -1.95289 -0.396837 -0.447917 -1.67479 0 0 -1.94603 
0 0 -1.95025 0 0 -1.93112 0 0 -1.92651 
0 0 -1.93014 0 0 -1.93965 -0.0334156 0.0528927 -1.06021 
0 0 -1.91748 0 0 -1.87922 0 0 -1.87736 
0 0 -1.87157 0 0 -1.85891 0 0 -1.86559 
-0.0466328 -0.260132 -1.49765 -0.174623 0.225061 -1.41063 0 0 -1.84243 
-0.319806 0.281978 -0.431562 0 0 -1.84773 -0.238418 0.0967273 -0.935362 
0 0 -1.83007 -0.181513 0.0431794 -0.991868 0 0 -1.81271 
0 0 -1.80594 -0.144239 -0.224246 -0.91361 0 0 -1.78505 
-0.252016 -0.122261 -0.916349 0 0 -1.76866 -0.204859 0.0371018 -0.795595 