# vtk DataFile Version 4.0
Generated by LIGGGHTS
ASCII
DATASET POLYDATA
POINTS 794 float
-0.0127165 -0.0479481 0.0811205 -0.00954152 -0.0487063 0.081121 -0.00467241 -0.0480894 0.0811204 
-0.00027423 -0.0496604 0.0811205 0.00353296 -0.0480384 0.0821182 0.00802965 -0.0488235 0.0811205 
0.0124924 -0.0480036 0.0811204 -0.0197989 -0.0455994 0.0811123 -0.0224571 -0.044224 0.081118 
-0.0156698 -0.0466687 0.0811205 -0.0130013 -0.0436405 0.0811198 -0.0102162 -0.0453798 0.0811205 
-0.00661852 -0.0456172 0.0811203 -0.000404702 -0.0466587 0.0811205 0.00737201 -0.0457833 0.0811081 
0.0103701 -0.0457271 0.0811205 0.0161192 -0.0469446 0.0811348 0.0189388 -0.0458849 0.0811201 
0.0229584 -0.0440987 0.0811205 -0.0251708 -0.0414706 0.0821181 -0.0196961 -0.0424554 0.0811058 
-0.0101594 -0.0418187 0.0810977 -0.00703155 -0.0426389 0.0811189 -0.00382367 -0.0408759 0.0811203 
-0.00168975 -0.0438403 0.0811185 0.0119673 -0.0421619 0.0821188 0.0173785 -0.0423313 0.082118 
0.0215714 -0.0409429 0.0811205 0.0255323 -0.0425545 0.0811204 -0.0289084 -0.0381491 0.0821211 
-0.0250698 -0.0376015 0.0811185 -0.0208719 -0.0387565 0.0821183 -0.0087072 -0.0364715 0.0821174 
0.00493943 -0.0383536 0.0820783 0.0104495 -0.0373995 0.0821173 0.0159948 -0.0375382 0.0824794 
0.0196216 -0.03863 0.0811205 0.0249478 -0.038721 0.0821185 0.0288591 -0.0401506 0.0811205 
0.0310106 -0.0378108 0.0811196 -0.0331623 -0.0355252 0.0821167 -0.0233974 -0.0351041 0.0811288 
-0.014391 -0.0336791 0.0818451 -0.00541082 -0.0343748 0.0811209 0.000170938 -0.0333621 0.0813458 
0.00375402 -0.0340224 0.0811212 0.0074737 -0.034904 0.0811235 0.01368 -0.034239 0.0823011 
0.0184284 -0.0341788 0.0811205 0.0210078 -0.0359121 0.0811205 0.0249229 -0.03368 0.0821186 
0.0350579 -0.0350659 0.0811205 -0.0385986 -0.0307541 0.0811205 -0.0365424 -0.0335497 0.0811187 
-0.0355153 -0.0300385 0.0810943 -0.0324233 -0.0300301 0.0811205 -0.0289927 -0.0314965 0.08112 
-0.0255185 -0.0326911 0.0811203 -0.0228289 -0.0313184 0.0811205 -0.0162948 -0.0308647 0.08112 
-0.00974485 -0.0312971 0.0821183 -0.00342604 -0.0306131 0.0821295 0.0103032 -0.0305112 0.0811203 
0.0164574 -0.031809 0.0811205 0.0207422 -0.0309338 0.0821183 0.0330148 -0.0312717 0.0821187 
-0.040314 -0.0278959 0.0811205 -0.0374259 -0.0264859 0.0811214 -0.0322388 -0.0268937 0.0811904 
-0.0290834 -0.0285015 0.081121 -0.0255016 -0.0297022 0.0818935 -0.0197454 -0.0287066 0.0821553 
-0.016045 -0.0276328 0.0811157 -0.00626732 -0.0279764 0.0811224 0.000611616 -0.0294505 0.0818056 
0.00877209 -0.0275858 0.0811205 0.0117096 -0.026988 0.0811772 0.0146262 -0.0281687 0.0811201 
0.0182669 -0.0270023 0.0811205 0.0297021 -0.028884 0.0815669 0.0392202 -0.0299386 0.0811205 
-0.0402043 -0.0238566 0.0811204 -0.036564 -0.0226187 0.082278 -0.029961 -0.024649 0.081138 
-0.0271349 -0.0256553 0.0811205 -0.0228319 -0.0262061 0.0811205 -0.0223273 -0.0228048 0.0811205 
-0.0182413 -0.0245837 0.0811205 -0.0136336 -0.0258566 0.0811196 -0.0153057 -0.0233447 0.0811205 
-0.0110196 -0.0243987 0.0811208 -0.000484345 -0.0234195 0.082118 0.00509066 -0.0235923 0.0812186 
0.00875432 -0.0244566 0.0811804 0.0156447 -0.0253472 0.0811204 0.0207901 -0.0239046 0.0822751 
0.0250394 -0.0254477 0.0811205 0.0278843 -0.026467 0.0818341 0.0352774 -0.0236627 0.0811071 
0.0377058 -0.0261033 0.0811205 0.0413382 -0.0251293 0.0811205 -0.032118 -0.0210733 0.0811901 
-0.0269263 -0.0207435 0.0827589 -0.0128719 -0.021344 0.0811206 -0.00886456 -0.02098 0.0822687 
0.00748282 -0.0204624 0.0821177 0.01235 -0.0227656 0.0821019 0.0170618 -0.0226592 0.0811205 
0.0248929 -0.0205492 0.0811595 0.0351213 -0.0204104 0.0811205 0.0380495 -0.0223824 0.0811205 
0.0448895 -0.0210107 0.0811966 -0.0455978 -0.0194112 0.0811198 -0.0417386 -0.0192324 0.0821188 
-0.0284612 -0.0171436 0.0812638 -0.0249216 -0.0162003 0.0811205 -0.0199575 -0.0180917 0.0811114 
-0.0173309 -0.0166355 0.0811201 -0.0124633 -0.0183561 0.0811205 0.00600029 -0.0168693 0.0811205 
0.00941612 -0.0170811 0.0811205 0.0138006 -0.0189084 0.0811205 0.0190596 -0.0174612 0.0821184 
0.0229487 -0.0181277 0.0811211 0.0260348 -0.0172204 0.08112 0.0313733 -0.0192026 0.0821415 
0.0346227 -0.0170075 0.0811233 0.0391445 -0.0186273 0.0821183 0.045996 -0.0158157 0.0821183 
-0.0471797 -0.0153314 0.0811204 -0.0441835 -0.0154207 0.0811174 -0.0326492 -0.0162783 0.0821147 
-0.0270962 -0.0136682 0.0811205 -0.029898 -0.0125164 0.0811787 -0.0200155 -0.0150931 0.0811229 
-0.0173151 -0.013043 0.0811205 -0.0142285 -0.0152319 0.0811205 -0.0119141 -0.0127802 0.0811205 
0.0070867 -0.0123982 0.0821183 0.0128055 -0.0150933 0.0821183 0.0280384 -0.01318 0.0821183 
0.0354859 -0.014112 0.0811231 0.0390404 -0.0136958 0.0811204 0.0418076 -0.01579 0.0811205 
0.0428612 -0.0126018 0.0811205 0.048028 -0.0123696 0.0811197 -0.0468468 -0.0111442 0.0821179 
-0.0342349 -0.0112911 0.0811205 -0.0275668 -0.0103523 0.0811205 -0.022894 -0.00885847 0.0821163 
-0.0214214 -0.0124432 0.0811203 -0.0190499 -0.00977953 0.0811205 -0.0146162 -0.00905897 0.0811198 
-0.011628 -0.00934201 0.0811206 -0.00871516 -0.0102063 0.0811205 -0.002682 -0.00968792 0.0821177 
0.00239225 -0.0115203 0.081263 0.00394732 -0.00891001 0.0815822 0.0101578 -0.0092823 0.0811205 
0.0142162 -0.0114311 0.0811205 0.0206647 -0.0104464 0.0821183 0.024467 -0.0115914 0.0811205 
0.0332902 -0.0109261 0.0821372 0.03749 -0.0101012 0.0811205 -0.0486813 -0.00724044 0.0811205 
-0.0434283 -0.0083886 0.0811204 -0.0372303 -0.00762989 0.0814518 -0.030254 -0.00702492 0.0825915 
-0.0264369 -0.00728396 0.0811205 -0.017166 -0.00743813 0.0811205 -0.0128133 -0.00621874 0.0811204 
-0.00987049 -0.00688605 0.0811202 -0.00614492 -0.00794687 0.0811208 0.000848454 -0.00612381 0.0821172 
0.00497033 -0.00591983 0.0811205 0.00717065 -0.00852093 0.0811205 0.018311 -0.00644443 0.0813829 
0.0214385 -0.00643161 0.0811306 0.0299368 -0.0089521 0.0811205 0.0261101 -0.00710259 0.0821183 
0.0395889 -0.00648501 0.0811206 0.0466797 -0.00588144 0.0811205 0.0489823 -0.00818139 0.0811205 
-0.0398833 -0.00465234 0.0811205 -0.0292027 -0.00342105 0.0811261 -0.0262919 -0.00423068 0.0811214 
-0.0233966 -0.00501694 0.0811209 -0.0211619 -0.00301616 0.0812431 -0.018854 -0.00494654 0.0812782 
-0.0158416 -0.00459734 0.0811205 -0.0133655 -0.00286815 0.0811204 -0.0105082 -0.00386516 0.0811205 
-0.00747916 -0.00506984 0.0811208 -0.00449545 -0.00453569 0.0811205 0.00248811 -0.00223498 0.0811185 
0.00805366 -0.00317847 0.0821174 0.0164771 -0.0028068 0.0811204 0.0193683 -0.00365304 0.0811324 
0.0231665 -0.00303378 0.0825286 0.0351754 -0.00248387 0.0813507 0.042354 -0.00484556 0.0811205 
0.046527 -0.00199217 0.0821177 0.049407 -0.00458405 0.0811205 -0.0424266 -0.000675008 0.0821184 
-0.0391893 0.00164983 0.0811205 -0.0359786 0.0022055 0.0811311 -0.0298828 -0.000491238 0.0811203 
-0.0268916 -0.000875486 0.0811206 -0.0230468 0.000430987 0.0821509 -0.0179336 -0.000103813 0.0825474 
-0.0139889 9.94045e-05 0.0811205 -0.00872327 -0.00144332 0.0811205 -0.00587518 -0.000495591 0.0811205 
-0.000593222 0.000589908 0.0821185 0.00493071 0.000765268 0.082121 0.0118775 3.54706e-05 0.0821172 
0.0157507 0.000101675 0.0811224 0.0187208 -0.000423996 0.0811205 0.0214769 0.000794161 0.0811205 
0.0270213 0.000708295 0.0811205 0.0313543 -0.000703693 0.0821183 0.0415304 -0.00080808 0.0821501 
0.0446461 0.00147422 0.0811188 -0.0495042 0.00263512 0.0811205 -0.0433194 0.0049024 0.0821183 
-0.0392647 0.00466574 0.0811207 -0.0349393 0.00501628 0.0811181 -0.0319175 0.00259193 0.0811216 
-0.0289319 0.00238171 0.0811189 -0.0276276 0.00508054 0.0811208 -0.0237664 0.0053922 0.0821178 
-0.019398 0.00337706 0.0811199 -0.0147026 0.00393631 0.0821057 -0.00964847 0.00298512 0.082119 
0.0146309 0.00288808 0.081123 0.0175926 0.00246185 0.0811083 0.0206524 0.00481721 0.0820873 
0.0250519 0.00311334 0.0811205 0.0301723 0.00310046 0.0811205 0.0336679 0.00250601 0.0811205 
0.0368485 0.00222186 0.0811205 0.048538 0.00263054 0.0821183 -0.0482884 0.00637091 0.0821192 
-0.0438779 0.00875914 0.081119 -0.0400901 0.00758215 0.0811201 -0.0362014 0.00862705 0.081121 
-0.0311976 0.00659863 0.0821359 -0.0182132 0.00618771 0.0811222 -0.004718 0.0038281 0.0822475 
-0.000389106 0.00580786 0.0811756 0.00464616 0.00609398 0.0812648 0.00947458 0.00751091 0.081113 
0.0124476 0.00495173 0.0811684 0.016825 0.00538537 0.081116 0.0254485 0.00667595 0.0811109 
0.0282889 0.00544098 0.0811205 0.0316757 0.00765443 0.0811205 0.0356946 0.00522622 0.0828244 
0.0399238 0.00572103 0.081121 0.0441546 0.00942883 0.0811274 -0.0471138 0.0114424 0.0821183 
-0.0405034 0.0121542 0.0821171 -0.0332366 0.0111678 0.0821166 -0.0294369 0.0101598 0.0811202 
-0.0154217 0.00892569 0.0821332 -0.0100453 0.00839368 0.0822271 -4.04167e-05 0.014462 0.0831124 
0.00594194 0.00987533 0.0821183 0.0167562 0.0105743 0.0811205 0.0267055 0.0103148 0.082121 
0.0411057 0.0124715 0.0821188 0.0487275 0.00971275 0.0811218 -0.0135557 0.0124882 0.0811763 
0.0274326 0.0143281 0.0815897 0.0462354 0.0127807 0.0821185 -0.045635 0.0162715 0.0821079 
-0.0416895 0.0167415 0.0811187 -0.0384562 0.0191919 0.0821183 -0.0323616 0.0176442 0.0811205 
-0.0283769 0.0152642 0.0821183 -0.00889337 0.0192961 0.08112 0.0265519 0.0175874 0.081119 
0.0459668 0.0173989 0.0811777 -0.0433121 0.0217781 0.0821173 -0.0346652 0.0211653 0.0811205 
-0.0316505 0.0210305 0.0813664 -0.0268938 0.021336 0.0821183 -0.0183082 0.0220413 0.0811205 
-0.0148386 0.0207361 0.0811177 -0.0118597 0.0213764 0.0811153 -0.00291178 0.0208936 0.0821183 
0.00186833 0.0225103 0.0821214 0.0194803 0.020026 0.0811353 0.0227765 0.0227988 0.0825548 
0.028001 0.0206051 0.0813586 0.0316412 0.0204308 0.0811359 0.0352236 0.021063 0.083364 
0.0378458 0.0196404 0.0811205 0.0390312 0.0224241 0.0811205 0.0430832 0.0221143 0.0821183 
-0.0395075 0.0229246 0.0811205 -0.0365549 0.0250426 0.0814806 -0.0181338 0.0259758 0.0811205 
-0.0147228 0.0254692 0.0811706 -0.0042636 0.0269156 0.0823291 -0.000329709 0.0256695 0.0811102 
0.0105998 0.0247289 0.0811149 0.0325623 0.0244029 0.0821189 0.0423278 0.0259431 0.0811205 
[...]
POINT_DATA 794
FIELD FieldData 7
id 1 794 int
51 207 228 273 172 50 151 262 199 
11 290 278 48 100 277 187 239 161 
279 2 164 113 137 178 59 371 257 
426 390 297 213 269 171 182 590 398 
203 208 18 409 211 193 191 192 619 
87 492 46 166 97 184 216 77 180 
304 168 293 21 329 548 362 489 495 
90 449 319 88 38 433 496 58 94 
342 407 480 510 549 523 303 600 289 
428 460 6 562 352 24 287 351 338 
252 435 541 378 364 332 454 529 366 
110 74 584 185 515 384 310 43 98 
300 63 72 175 176 134 261 173 62 
76 542 102 478 367 462 493 444 473 
377 222 221 274 149 425 49 266 299 
275 431 250 28 372 80 227 86 140 
128 267 259 306 125 15 165 39 286 
32 138 30 124 204 84 95 131 69 
14 406 294 382 509 233 218 70 45 
280 141 55 375 249 64 237 202 93 
109 10 238 383 441 253 9 356 154 
33 263 370 12 163 276 106 353 35 
245 363 13 130 82 209 217 57 36 
291 53 146 212 292 264 232 3 104 
155 122 112 224 159 247 442 85 79 
126 20 89 111 22 447 115 54 40 
229 336 158 179 337 350 205 157 1 
268 314 311 347 150 436 254 339 129 
244 326 23 265 256 162 255 429 144 
322 117 543 397 285 589 284 505 399 
320 312 71 75 373 105 61 120 8 
235 380 581 368 29 470 365 5 415 
349 225 246 487 558 570 167 219 305 
288 174 145 83 25 190 108 147 313 
536 234 327 41 466 214 403 118 533 
189 395 465 393 401 37 200 201 47 
17 376 391 231 488 468 484 188 282 
103 42 148 68 335 302 325 360 475 
181 73 139 443 142 315 226 195 417 
121 455 379 483 307 445 91 206 31 
471 26 101 99 236 534 440 16 198 
135 281 123 242 309 114 60 52 81 
328 251 136 152 56 243 7 186 344 
96 479 412 457 506 423 119 396 44 
507 394 422 597 459 491 34 603 345 
634 583 526 258 381 421 557 626 240 
298 580 485 92 271 522 65 547 419 
620 594 296 408 4 486 554 183 153 
132 636 230 561 517 331 621 463 160 
318 464 67 127 156 481 400 241 556 
334 354 197 452 439 321 316 520 502 
133 427 453 270 512 343 215 357 317 
609 385 66 392 107 324 374 411 341 
446 451 143 404 569 295 467 323 389 
577 500 593 532 388 513 598 504 359 
301 635 418 420 430 210 616 437 508 
518 333 571 116 477 177 501 223 27 
194 78 355 196 474 461 482 432 170 
424 414 248 402 340 458 608 19 624 
582 564 553 416 596 169 476 438 607 
272 622 346 519 544 545 521 617 260 
490 348 528 525 629 555 638 524 615 
560 574 456 599 627 530 413 369 601 
283 405 633 612 434 308 503 386 450 
361 387 358 220 614 527 568 499 550 
539 531 591 494 649 410 559 643 579 
639 514 472 605 572 537 516 498 511 
575 565 330 573 551 585 651 592 645 
540 469 604 650 647 552 588 578 538 
642 576 613 448 563 497 631 546 663 
644 630 660 535 654 661 662 648 610 
586 664 595 611 653 678 667 625 673 
606 668 632 637 675 657 602 656 670 
671 665 676 682 677 641 672 652 683 
623 685 690 567 618 655 679 688 689 
669 699 701 587 697 640 566 702 693 
692 698 696 684 694 704 700 695 703 
674 687 708 713 658 711 709 706 681 
714 717 628 715 716 712 724 666 725 
705 718 646 659 680 723 721 707 726 
722 730 719 720 727 729 691 728 743 
742 737 686 710 731 734 738 732 735 
741 740 736 739 744 733 751 754 750 
746 752 755 745 748 747 753 756 749 
767 758 765 764 761 762 769 760 757 
763 766 759 768 778 776 777 779 775 
782 781 774 773 780 772 770 771 786 
784 789 793 787 785 790 792 783 788 
791 794 
type 1 794 int
1 1 1 1 1 1 1 1 1 
1 1 1 1 1 1 1 1 1 
1 1 1 1 1 1 1 1 1 
1 1 1 1 1 1 1 1 1 
1 1 1 1 1 1 1 1 1 
1 1 1 1 1 1 1 1 1 
1 1 1 1 1 1 1 1 1 
1 1 1 1 1 1 1 1 1 
1 1 1 1 1 1 1 1 1 
1 1 1 1 1 1 1 1 1 
1 1 1 1 1 1 1 1 1 
1 1 1 1 1 1 1 1 1 
1 1 1 1 1 1 1 1 1 
1 1 1 1 1 1 1 1 1 
1 1 1 1 1 1 1 1 1 
1 1 1 1 1 1 1 1 1 
1 1 1 1 1 1 1 1 1 
1 1 1 1 1 1 1 1 1 
1 1 1 1 1 1 1 1 1 
1 1 1 1 1 1 1 1 1 
1 1 1 1 1 1 1 1 1 
1 1 1 1 1 1 1 1 1 
1 1 1 1 1 1 1 1 1 
1 1 1 1 1 1 1 1 1 
1 1 1 1 1 1 1 1 1 
1 1 1 1 1 1 1 1 1 
1 1 1 1 1 1 1 1 1 
1 1 1 1 1 1 1 1 1 
1 1 1 1 1 1 1 1 1 
1 1 1 1 1 1 1 1 1 
1 1 1 1 1 1 1 1 1 
1 1 1 1 1 1 1 1 1 
1 1 1 1 1 1 1 1 1 
1 1 1 1 1 1 1 1 1 
1 1 1 1 1 1 1 1 1 
1 1 1 1 1 1 1 1 1 
1 1 1 1 1 1 1 1 1 
1 1 1 1 1 1 1 1 1 
1 1 1 1 1 1 1 1 1 
1 1 1 1 1 1 1 1 1 
1 1 1 1 1 1 1 1 1 
1 1 1 1 1 1 1 1 1 
1 1 1 1 1 1 1 1 1 
1 1 1 1 1 1 1 1 1 
1 1 1 1 1 1 1 1 1 
1 1 1 1 1 1 1 1 1 
1 1 1 1 1 1 1 1 1 
1 1 1 1 1 1 1 1 1 
1 1 1 1 1 1 1 1 1 
1 1 1 1 1 1 1 1 1 
1 1 1 1 1 1 1 1 1 
1 1 1 1 1 1 1 1 1 
1 1 1 1 1 1 1 1 1 
1 1 1 1 1 1 1 1 1 
1 1 1 1 1 1 1 1 1 
1 1 1 1 1 1 1 1 1 
1 1 1 1 1 1 1 1 1 
1 1 1 1 1 1 1 1 1 
1 1 1 1 1 1 1 1 1 
1 1 1 1 1 1 1 1 1 
1 1 1 1 1 1 1 1 1 
1 1 1 1 1 1 1 1 1 
1 1 1 1 1 1 1 1 1 
1 1 1 1 1 1 1 1 1 
1 1 1 1 1 1 1 1 1 
1 1 1 1 1 1 1 1 1 
1 1 1 1 1 1 1 1 1 
1 1 1 1 1 1 1 1 1 
1 1 1 1 1 1 1 1 1 
1 1 1 1 1 1 1 1 1 
1 1 1 1 1 1 1 1 1 
1 1 1 1 1 1 1 1 1 
1 1 1 1 1 1 1 1 1 
1 1 1 1 1 1 1 1 1 
1 1 1 1 1 1 1 1 1 
1 1 1 1 1 1 1 1 1 
1 1 1 1 1 1 1 1 1 
1 1 1 1 1 1 1 1 1 
1 1 1 1 1 1 1 1 1 
1 1 1 1 1 1 1 1 1 
1 1 1 1 1 1 1 1 1 
1 1 1 1 1 1 1 1 1 
1 1 1 1 1 1 1 1 1 
1 1 1 1 1 1 1 1 1 
1 1 1 1 1 1 1 1 1 
1 1 1 1 1 1 1 1 1 
1 1 1 1 1 1 1 1 1 
1 1 1 1 1 1 1 1 1 
1 1 
i 3 794 int
0 0 0 0 0 0 0 0 0 
0 0 0 0 0 0 0 0 0 
0 0 0 0 0 0 0 0 0 
0 0 0 0 0 0 0 0 0 
0 0 0 0 0 0 0 0 0 
0 0 0 0 0 0 0 0 0 
0 0 0 0 0 0 0 0 0 
0 0 0 0 0 0 0 0 0 
0 0 0 0 0 0 0 0 0 
0 0 0 0 0 0 0 0 0 
0 0 0 0 0 0 0 0 0 
0 0 0 0 0 0 0 0 0 
0 0 0 0 0 0 0 0 0 
0 0 0 0 0 0 0 0 0 
0 0 0 0 0 0 0 0 0 
0 0 0 0 0 0 0 0 0 
0 0 0 0 0 0 0 0 0 
0 0 0 0 0 0 0 0 0 
0 0 0 0 0 0 0 0 0 
0 0 0 0 0 0 0 0 0 
0 0 0 0 0 0 0 0 0 
0 0 0 0 0 0 0 0 0 
0 0 0 0 0 0 0 0 0 
0 0 0 0 0 0 0 0 0 
0 0 0 0 0 0 0 0 0 
0 0 0 0 0 0 0 0 0 
0 0 0 0 0 0 0 0 0 
0 0 0 0 0 0 0 0 0 
0 0 0 0 0 0 0 0 0 
0 0 0 0 0 0 0 0 0 
0 0 0 0 0 0 0 0 0 
0 0 0 0 0 0 0 0 0 
0 0 0 0 0 0 0 0 0 
0 0 0 0 0 0 0 0 0 
0 0 0 0 0 0 0 0 0 
0 0 0 0 0 0 0 0 0 
0 0 0 0 0 0 0 0 0 
0 0 0 0 0 0 0 0 0 
0 0 0 0 0 0 0 0 0 
0 0 0 0 0 0 0 0 0 
0 0 0 0 0 0 0 0 0 
0 0 0 0 0 0 0 0 0 
0 0 0 0 0 0 0 0 0 
0 0 0 0 0 0 0 0 0 
0 0 0 0 0 0 0 0 0 
0 0 0 0 0 0 0 0 0 
0 0 0 0 0 0 0 0 0 
0 0 0 0 0 0 0 0 0 
0 0 0 0 0 0 0 0 0 
0 0 0 0 0 0 0 0 0 
0 0 0 0 0 0 0 0 0 
0 0 0 0 0 0 0 0 0 
0 0 0 0 0 0 0 0 0 
0 0 0 0 0 0 0 0 0 
0 0 0 0 0 0 0 0 0 
0 0 0 0 0 0 0 0 0 
0 0 0 0 0 0 0 0 0 
0 0 0 0 0 0 0 0 0 
0 0 0 0 0 0 0 0 0 
0 0 0 0 0 0 0 0 0 
0 0 0 0 0 0 0 0 0 
0 0 0 0 0 0 0 0 0 
0 0 0 0 0 0 0 0 0 
0 0 0 0 0 0 0 0 0 
0 0 0 0 0 0 0 0 0 
0 0 0 0 0 0 0 0 0 
0 0 0 0 0 0 0 0 0 
0 0 0 0 0 0 0 0 0 
0 0 0 0 0 0 0 0 0 
0 0 0 0 0 0 0 0 0 
0 0 0 0 0 0 0 0 0 
0 0 0 0 0 0 0 0 0 
0 0 0 0 0 0 0 0 0 
0 0 0 0 0 0 0 0 0 
0 0 0 0 0 0 0 0 0 
0 0 0 0 0 0 0 0 0 
0 0 0 0 0 0 0 0 0 
0 0 0 0 0 0 0 0 0 
0 0 0 0 0 0 0 0 0 
0 0 0 0 0 0 0 0 0 
0 0 0 0 0 0 0 0 0 
0 0 0 0 0 0 0 0 0 
0 0 0 0 0 0 0 0 0 
0 0 0 0 0 0 0 0 0 
0 0 0 0 0 0 0 0 0 
0 0 0 0 0 0 0 0 0 
0 0 0 0 0 0 0 0 0 
0 0 0 0 0 0 0 0 0 
0 0 0 0 0 0 0 0 0 
0 0 0 0 0 0 0 0 0 
0 0 0 0 0 0 0 0 0 
0 0 0 0 0 0 0 0 0 
0 0 0 0 0 0 0 0 0 
0 0 0 0 0 0 0 0 0 
0 0 0 0 0 0 0 0 0 
0 0 0 0 0 0 0 0 0 
0 0 0 0 0 0 0 0 0 
0 0 0 0 0 0 0 0 0 
0 0 0 0 0 0 0 0 0 
0 0 0 0 0 0 0 0 0 
0 0 0 0 0 0 0 0 0 
0 0 0 0 0 0 0 0 0 
0 0 0 0 0 0 0 0 0 
0 0 0 0 0 0 0 0 0 
0 0 0 0 0 0 0 0 0 
0 0 0 0 0 0 0 0 0 
0 0 0 0 0 0 0 0 0 
0 0 0 0 0 0 0 0 0 
0 0 0 0 0 0 0 0 0 
0 0 0 0 0 0 0 0 0 
0 0 0 0 0 0 0 0 0 
0 0 0 0 0 0 0 0 0 
0 0 0 0 0 0 0 0 0 
0 0 0 0 0 0 0 0 0 
0 0 0 0 0 0 0 0 0 
0 0 0 0 0 0 0 0 0 
0 0 0 0 0 0 0 0 0 
0 0 0 0 0 0 0 0 0 
0 0 0 0 0 0 0 0 0 
0 0 0 0 0 0 0 0 0 
0 0 0 0 0 0 0 0 0 
0 0 0 0 0 0 0 0 0 
0 0 0 0 0 0 0 0 0 
0 0 0 0 0 0 0 0 0 
0 0 0 0 0 0 0 0 0 
0 0 0 0 0 0 0 0 0 
0 0 0 0 0 0 0 0 0 
0 0 0 0 0 0 0 0 0 
0 0 0 0 0 0 0 0 0 
0 0 0 0 0 0 0 0 0 
0 0 0 0 0 0 0 0 0 
0 0 0 0 0 0 0 0 0 
0 0 0 0 0 0 0 0 0 
0 0 0 0 0 0 0 0 0 
0 0 0 0 0 0 0 0 0 
0 0 0 0 0 0 0 0 0 
0 0 0 0 0 0 0 0 0 
0 0 0 0 0 0 0 0 0 
0 0 0 0 0 0 0 0 0 
0 0 0 0 0 0 0 0 0 
0 0 0 0 0 0 0 0 0 
0 0 0 0 0 0 0 0 0 
0 0 0 0 0 0 0 0 0 
0 0 0 0 0 0 0 0 0 
0 0 0 0 0 0 0 0 0 
0 0 0 0 0 0 0 0 0 
0 0 0 0 0 0 0 0 0 
0 0 0 0 0 0 0 0 0 
0 0 0 0 0 0 0 0 0 
0 0 0 0 0 0 0 0 0 
0 0 0 0 0 0 0 0 0 
0 0 0 0 0 0 0 0 0 
0 0 0 0 0 0 0 0 0 
0 0 0 0 0 0 0 0 0 
0 0 0 0 0 0 0 0 0 
0 0 0 0 0 0 0 0 0 
0 0 0 0 0 0 0 0 0 
0 0 0 0 0 0 0 0 0 
0 0 0 0 0 0 0 0 0 
0 0 0 0 0 0 0 0 0 
0 0 0 0 0 0 0 0 0 
0 0 0 0 0 0 0 0 0 
0 0 0 0 0 0 0 0 0 
0 0 0 0 0 0 0 0 0 
0 0 0 0 0 0 0 0 0 
0 0 0 0 0 0 0 0 0 
0 0 0 0 0 0 0 0 0 
0 0 0 0 0 0 0 0 0 
0 0 0 0 0 0 0 0 0 
0 0 0 0 0 0 0 0 0 
0 0 0 0 0 0 0 0 0 
0 0 0 0 0 0 0 0 0 
0 0 0 0 0 0 0 0 0 
0 0 0 0 0 0 0 0 0 
0 0 0 0 0 0 0 0 0 
0 0 0 0 0 0 0 0 0 
0 0 0 0 0 0 0 0 0 
0 0 0 0 0 0 0 0 0 
0 0 0 0 0 0 0 0 0 
0 0 0 0 0 0 0 0 0 
0 0 0 0 0 0 0 0 0 
0 0 0 0 0 0 0 0 0 
0 0 0 0 0 0 0 0 0 
0 0 0 0 0 0 0 0 0 
0 0 0 0 0 0 0 0 0 
0 0 0 0 0 0 0 0 0 
0 0 0 0 0 0 0 0 0 
0 0 0 0 0 0 0 0 0 
0 0 0 0 0 0 0 0 0 
0 0 0 0 0 0 0 0 0 
0 0 0 0 0 0 0 0 0 
0 0 0 0 0 0 0 0 0 
0 0 0 0 0 0 0 0 0 
0 0 0 0 0 0 0 0 0 
0 0 0 0 0 0 0 0 0 
0 0 0 0 0 0 0 0 0 
0 0 0 0 0 0 0 0 0 
0 0 0 0 0 0 0 0 0 
0 0 0 0 0 0 0 0 0 
0 0 0 0 0 0 0 0 0 
0 0 0 0 0 0 0 0 0 
0 0 0 0 0 0 0 0 0 
0 0 0 0 0 0 0 0 0 
0 0 0 0 0 0 0 0 0 
0 0 0 0 0 0 0 0 0 
0 0 0 0 0 0 0 0 0 
0 0 0 0 0 0 0 0 0 
0 0 0 0 0 0 0 0 0 
0 0 0 0 0 0 0 0 0 
0 0 0 0 0 0 0 0 0 
0 0 0 0 0 0 0 0 0 
0 0 0 0 0 0 0 0 0 
0 0 0 0 0 0 0 0 0 
0 0 0 0 0 0 0 0 0 
0 0 0 0 0 0 0 0 0 
0 0 0 0 0 0 0 0 0 
0 0 0 0 0 0 0 0 0 
0 0 0 0 0 0 0 0 0 
0 0 0 0 0 0 0 0 0 
0 0 0 0 0 0 0 0 0 
0 0 0 0 0 0 0 0 0 
0 0 0 0 0 0 0 0 0 
0 0 0 0 0 0 0 0 0 
0 0 0 0 0 0 0 0 0 
0 0 0 0 0 0 0 0 0 
0 0 0 0 0 0 0 0 0 
0 0 0 0 0 0 0 0 0 
0 0 0 0 0 0 0 0 0 
0 0 0 0 0 0 0 0 0 
0 0 0 0 0 0 0 0 0 
0 0 0 0 0 0 0 0 0 
0 0 0 0 0 0 0 0 0 
0 0 0 0 0 0 0 0 0 
0 0 0 0 0 0 0 0 0 
0 0 0 0 0 0 0 0 0 
0 0 0 0 0 0 0 0 0 
0 0 0 0 0 0 0 0 0 
0 0 0 0 0 0 0 0 0 
0 0 0 0 0 0 0 0 0 
0 0 0 0 0 0 0 0 0 
0 0 0 0 0 0 0 0 0 
0 0 0 0 0 0 0 0 0 
0 0 0 0 0 0 0 0 0 
0 0 0 0 0 0 0 0 0 
0 0 0 0 0 0 0 0 0 
0 0 0 0 0 0 0 0 0 
0 0 0 0 0 0 0 0 0 
0 0 0 0 0 0 0 0 0 
0 0 0 0 0 0 0 0 0 
0 0 0 0 0 0 0 0 0 
0 0 0 0 0 0 0 0 0 
0 0 0 0 0 0 0 0 0 
0 0 0 0 0 0 0 0 0 
0 0 0 0 0 0 0 0 0 
0 0 0 0 0 0 0 0 0 
0 0 0 0 0 0 0 0 0 
0 0 0 0 0 0 0 0 0 
0 0 0 0 0 0 0 0 0 
0 0 0 0 0 0 0 0 0 
0 0 0 0 0 0 0 0 0 
0 0 0 0 0 0 0 0 0 
0 0 0 0 0 0 0 0 0 
0 0 0 0 0 0 0 0 0 
0 0 0 0 0 0 0 0 0 
0 0 0 0 0 0 
v 3 794 double
-0.00654527 0.00377549 6.79364e-10 -0.0068165 -0.00399995 -0.0155533 0.0156828 -0.0399776 0.000153351 
-0.0134517 -0.000212049 9.65149e-05 -0.0031984 0.00654097 0.000354294 -0.00420681 -0.00490599 -2.12358e-13 
-0.0333151 -0.00885008 -9.72556e-05 -0.0117574 0.00678148 0.0122168 -0.0029729 -0.00296186 -0.004661 
-0.0105042 0.0239481 1.3992e-09 0.0228991 0.0451877 -0.0124201 0.0153913 0.0263858 -3.27131e-09 
0.0453364 0.00150271 -8.74774e-06 -0.0279746 -0.000380039 -7.36812e-06 0.00909896 -0.059708 0.00362804 
-0.0401844 0.00353126 0.00136782 -0.00532024 0.0228419 -0.00281385 0.00259998 0.00308806 -0.00160767 
-0.017496 -0.00890468 -0.000617549 0.00384724 -0.00347906 0.00338178 -0.069883 0.0178553 0.0099226 
0.0494522 0.0243714 -0.0113241 -0.0359294 -0.00105188 0.00338892 0.0133634 0.0344712 -0.00065791 
-0.0481765 -0.0157774 0.00281052 -0.0200776 -0.00168004 -0.000833757 -0.0214312 0.00178052 0.000567776 
-0.0351903 0.00299875 7.79031e-13 -0.0161783 -0.00905218 0.000147546 -6.14857e-05 -0.00528399 -0.00539254 
0.00437308 -0.00290844 -0.00287242 -0.0363619 0.0110191 -2.41324e-07 0.0229649 0.0377031 0.00333137 
0.0335757 0.00138359 0.0391564 0.0332604 0.0194777 0.000389699 -0.0211476 0.00279581 -0.003112 
-0.0310736 0.00118841 -5.72969e-07 -0.00972944 -0.00767585 6.93382e-05 -0.0153283 -0.0528035 -1.11017e-12 
-0.0412503 -0.00973435 -2.39682e-05 0.0134539 0.00130234 0.00337932 0.0163091 -0.00717713 -0.00208394 
0.0999643 -0.00976466 0.0376458 0.0061792 0.0568092 -5.35911e-05 -0.0026955 0.042966 0.00743306 
0.0678033 0.0594083 0.0111875 0.0272095 0.0207795 -0.00597219 -0.050286 -0.0172254 0.0767068 
0.00539581 -0.000322326 -5.42855e-07 -0.00320492 -0.00538921 -8.08389e-06 0.00815804 -0.0109128 0.000484243 
-0.000968514 0.00489263 -2.65086e-08 0.0048466 -0.00147471 -3.38781e-13 -0.00755818 -0.0149763 0.00190693 
-0.0353055 0.0453382 0.0118298 0.00598729 -0.0129536 1.20012e-09 0.0106913 -0.00468902 -0.00207348 
-0.00226111 0.0082579 -0.000390567 -0.000810544 0.00626903 2.47666e-08 0.0498567 0.0236917 0.000295308 
-0.0368075 0.0607867 7.34846e-07 -0.0596733 0.108774 0.00166549 0.0714656 0.00874358 0.000373554 
0.000888397 0.00426718 -2.284e-09 0.0138918 0.00524763 -0.000664993 0.060511 0.0513722 -0.000801463 
0.0333228 -0.0371957 -5.23978e-12 -0.0114741 0.062816 -0.00130423 -0.011963 0.00853815 0.00316016 
0.023373 -0.00705783 0.00217864 -0.00644812 0.00184417 0.0665841 -0.0129592 0.00176063 -0.0142278 
-0.0157867 0.0644475 0.0052094 -0.0677625 0.11299 -0.000308453 -0.0247796 -0.00593541 0.00207268 
-0.0163973 0.0196782 -0.000170503 -0.00851659 -0.0238036 0.0234449 0.0132862 -0.00262822 8.53632e-05 
0.0486094 0.0426796 1.91359e-06 -0.0686535 -0.0519922 -0.0190055 0.0169851 -0.0564224 6.43692e-11 
0.0279681 -0.0228447 0.00228521 0.0137976 0.00631415 0.0228624 0.0150054 0.025467 -0.022822 
0.00311351 -0.00676299 -2.14043e-05 0.0435403 -0.0253421 -4.35666e-12 0.00712689 0.00454735 2.49838e-05 
-0.0691852 0.0706741 -1.49668e-09 0.00557113 0.0361556 -0.00410333 -0.0265944 0.0152761 3.29817e-12 
-0.0500252 0.0288007 0.00526779 0.0539162 0.110281 3.49842e-05 -0.0166654 -0.00324508 -0.0127896 
-0.00614601 -0.0626729 -0.0216348 0.00418421 0.00200058 0.000487242 -0.013999 -0.04317 0.138205 
-0.000807423 -0.079054 -1.10137e-12 -0.0675457 -0.00323583 -0.0246082 0.0450629 0.0486297 0.0102608 
-0.0609399 -0.0169467 -5.5083e-10 -0.0800536 0.0105442 0.000270245 0.169336 -0.0375927 0.00344881 
0.0713826 0.0800708 0.0385388 -0.061496 0.0102333 0.000326584 -0.00346503 0.0322436 0.131279 
-0.00469303 0.00960218 0.000361269 -0.0316756 0.0832429 -0.0647653 0.00167958 0.00935801 -8.55357e-07 
0.0141421 -0.0876226 -0.0519099 0.000878208 -0.0365412 -7.83137e-07 0.0278364 -0.011226 -1.51567e-05 
-0.0161057 0.0283288 -0.012921 0.00553256 -0.0521435 -0.00536062 -0.0020233 0.00540804 -0.0224202 
-0.0268846 -0.0485144 1.55225e-05 -0.0672889 -0.0209639 6.70097e-10 0.101934 0.0120847 0.0265905 
0.141504 0.01986 -0.013056 -0.0152454 0.007441 8.48253e-06 0.00808359 0.0191186 -0.000141887 
-0.0121713 0.0176584 1.70807e-05 -0.0382218 0.0234529 -3.28182e-10 0.0485516 0.0485314 -0.000535061 
0.0329128 -0.0374838 0.00202947 0.0376328 -0.0153473 0.000138049 -0.008115 0.000748549 0.0390306 
0.0549574 -0.0288561 0.00307063 -0.00214328 0.0054811 6.18542e-05 0.00397584 0.0207706 -7.13925e-07 
0.0191133 -0.0439264 0.000926066 -0.0202161 -0.00405052 -0.00587757 0.0584495 -0.0568271 0.00787911 
-0.00243112 0.0317952 2.6392e-05 -0.0261329 -0.0258408 0.00685704 0.0120683 0.0207932 0.0046007 
-0.00646394 0.0247012 0.000270904 -0.0292785 -0.0173662 -1.04761e-13 0.0337667 -0.0353819 7.65828e-12 
-0.0461576 0.0141451 2.40892e-11 0.000141935 0.0101518 2.47545e-06 -0.0459841 -0.0124632 6.56419e-05 
0.0408729 -0.00178659 -0.00762247 0.0276037 -0.0431329 4.43746e-05 -0.00626202 -0.0218729 1.66907e-13 
-0.0512351 -0.00939061 0.000369363 0.00378589 0.0258366 1.30136e-05 0.0176709 -0.0165823 -3.87149e-05 
-0.059455 -0.0243302 7.18703e-05 0.0426135 -0.0427635 -8.8332e-07 0.0148995 0.00620405 0.00142759 
-0.0457175 -0.00249492 -0.00170746 0.0400251 -0.0131479 3.22459e-05 0.0270134 0.0393163 4.05093e-05 
0.0258544 0.000806078 -0.000116953 0.0304612 -0.0134934 4.00653e-06 0.0210955 0.0192624 0.00101451 
-0.0882172 0.0356765 8.02096e-05 -0.0389441 0.0354832 -0.0501401 -0.00500216 0.00457174 4.19751e-13 
-0.00197509 0.00744503 -4.43141e-09 -0.0657369 -0.0698399 6.60744e-09 -0.0414659 0.00229573 -1.40937e-06 
-0.00429938 -0.0259715 -0.00620179 -0.0116534 -0.0603551 -1.35784e-08 0.0142839 -0.00393571 -1.11401e-09 
0.0451964 -0.108465 0.000261245 0.0171474 0.112441 0.1382 0.0116005 0.0255899 0.0260591 
0.015053 -0.0117534 -0.00107993 0.000714728 0.00663379 0.000121562 0.0381041 -0.0216244 0.00021076 
0.0225889 -0.00295221 -0.000793003 0.00973905 0.0168726 -0.000420642 -0.0128254 0.0492112 -0.00825829 
0.00086026 -0.0196888 -1.26209e-09 -0.00337348 -0.0623121 3.13165e-08 -0.0622587 -0.0308815 -0.0502903 
0.0405753 -0.112824 -0.0105908 0.0195058 -0.0512372 -5.78348e-10 -0.0209984 -0.0700881 -3.46603e-06 
0.0222908 -0.042138 0.000102522 -0.00221923 0.0135522 2.21041e-05 -0.000257583 0.00701469 -2.73902e-05 
-0.00169971 -0.0670926 4.8296e-13 0.0112777 -0.0142279 0.000847761 0.0140135 -0.0163478 -0.00216665 
0.0267367 0.0140631 0.00291061 0.0400007 0.00868145 0.00193242 0.0161826 -0.0100133 0.0117236 
0.0221189 0.00343397 -2.98679e-05 0.0216823 0.00581834 -1.42156e-05 0.0251723 -0.00118472 0.00056181 
0.0168477 0.0126378 8.71471e-05 0.0191588 0.0129721 -1.77836e-07 -0.00580645 -0.0405643 0.0016607 
0.00184695 -0.0373619 -0.00183813 -0.00749152 -0.022957 0.000691441 0.0320509 -0.0162736 0.0240268 
-0.0219664 -0.0772292 0.0520607 0.0376997 -0.00207117 -0.00743292 0.00754143 0.0331087 2.28198e-09 
0.0100037 0.00895256 0.000350955 0.00832062 0.00633958 -0.000150629 0.0602834 -0.0175707 0.000248015 
0.0326189 0.0201319 -2.07816e-09 0.00355962 0.0511063 0.00637344 0.0104929 -0.0105083 0.00149088 
0.0202864 0.0232041 -3.55685e-05 0.0516551 0.0210699 -0.00508064 0.0121219 0.0234292 0.0545862 
0.0171778 -0.000743168 -9.81029e-08 0.00914518 0.0186942 -0.000447757 0.00430619 0.00861949 -3.78662e-11 
-0.0541459 -0.0949231 -0.000265996 -0.000595835 -0.0430357 0.00414255 0.0210454 -0.0628829 0.00145198 
0.0121773 -0.024761 0.000490383 -0.0183838 -0.0334078 -4.05424e-05 -0.014351 -0.0350671 0.000129429 
-0.00409858 -0.0177002 -1.49147e-13 0.0151325 -0.00457199 -1.27718e-13 0.0384923 0.00286955 0.018197 
0.0177952 0.0252187 0.0021102 -0.00110723 -0.00203261 2.18942e-12 0.00520625 -0.000469332 -2.4876e-05 
0.0144209 -0.000914927 0.000628349 -0.0300861 0.0673195 0.0066821 0.00589098 0.00257902 0.00212072 
0.0104084 0.00100624 -0.00129111 0.0144866 -0.00706371 -0.00194151 0.00817915 0.0225747 -0.00138197 
-0.0625939 -0.0076006 -0.00222752 -0.0206644 -0.0785308 -0.0167592 -0.0316318 -0.0166824 0.00409655 
-0.00730595 -0.0297246 -0.00254152 -0.0119737 -0.00898514 -0.0143596 0.00337902 -0.0346268 -0.00569027 
0.00911481 -0.00319082 4.04854e-14 -0.00259748 -0.00522697 -1.49148e-13 0.00937867 -0.00989516 -4.02044e-13 
-0.0115905 0.0386521 -1.89044e-12 0.0148423 -0.0582725 -1.09885e-07 -0.00223947 0.00258448 -0.00205639 
0.0036031 0.00167905 -0.00139862 0.00945896 0.00553211 -0.0045796 0.0169166 0.034268 0.001899 
0.00781212 0.00189165 -0.00538053 -0.0581246 0.0194047 -0.00875237 -0.0824988 -0.234706 -0.118725 
-0.204494 -0.112169 -0.0298505 -0.0551398 -0.0428431 0.0444116 0.00708357 -0.0629703 -0.0245581 
0.0310573 0.00137846 0.00544022 -0.00530762 0.0293012 -0.0157841 -0.0282928 -0.0706798 -0.0282729 
0.00632786 0.0012074 -1.92234e-11 0.0808271 -0.018242 2.93328e-13 0.0959313 -0.0825402 0.0241938 
0.117814 -0.068299 -0.005439 0.0146578 -0.0374143 0.00102324 0.0100213 0.00780076 -8.59572e-05 
0.0217618 -0.0076786 -0.0034491 0.0424009 0.0196883 0.00151028 -0.1185 0.0942589 -0.000545276 
-0.00893126 0.000886035 -0.010185 0.00422918 -0.156463 -0.0466404 0.160033 0.37421 0.0221862 
-0.0192359 -0.0393233 -4.27883e-06 -0.0426243 -0.0694287 3.56539e-13 -0.00104217 -0.0793488 0.0111412 
0.0225624 0.0193529 0.00311372 0.00759885 -0.010266 0.00451159 0.00502631 0.049025 -0.0224117 
-0.0689827 -0.0455406 0.0498463 0.0037536 0.00126032 -0.00115158 0.00295708 0.00190328 0.0124844 
0.0182696 0.000707594 0.00398538 0.0138231 -0.00703049 3.04378e-07 0.0047796 0.0381839 2.44563e-10 
-0.0412908 -0.109219 -1.49582e-05 0.0880929 0.013794 0.00109045 -0.0241468 -0.15538 -0.00104448 
-0.0124515 -0.0399231 -0.0933812 0.00598775 0.000122943 0.00131233 -0.0380083 -0.0183887 -0.000162628 
-0.034083 -0.0447649 0.026883 0.0114514 -0.0446727 -8.14919e-08 -0.0125405 -0.00795203 5.46171e-13 
-0.0208823 -0.0724623 -0.0389253 0.00408844 -0.0166076 0.00578845 0.0395897 -0.0520527 2.05373e-07 
-0.145211 0.0332216 0.0146907 -0.164429 0.0333635 0.00700746 0.0287575 -0.0179367 -0.100065 
-0.118073 0.017331 0.0570143 0.0220658 -0.0644402 -0.023557 0.129573 0.109318 0.389447 
0.0213264 -0.00050372 -8.42483e-05 0.0398791 -0.00514333 2.48955e-06 -0.0163361 0.00024348 6.46987e-06 