# vtk DataFile Version 4.0
Generated by LIGGGHTS
ASCII
DATASET POLYDATA
POINTS 1213 float
-0.0123551 -0.0479269 0.0811179 -0.00910439 -0.0488033 0.0811207 -0.00592325 -0.0492864 0.0811204 
-0.00164995 -0.0496998 0.0811157 0.00204797 -0.0485782 0.0821198 0.0058406 -0.0493274 0.0811174 
0.00872113 -0.0488621 0.0817904 0.0115905 -0.0483285 0.0811188 -0.0220306 -0.0444558 0.081122 
-0.0183274 -0.0461386 0.0811149 -0.0155186 -0.0471706 0.081118 -0.0156603 -0.0441546 0.0811206 
-0.0102768 -0.0457573 0.0811205 -0.00787478 -0.0437156 0.0811205 -0.00714252 -0.0465867 0.081607 
-0.00418345 -0.0468306 0.0811205 -0.0011761 -0.0464343 0.0811201 0.00486516 -0.0458944 0.0811206 
0.00787154 -0.0457198 0.0811205 0.0110629 -0.0434525 0.082121 0.0138739 -0.0463931 0.0811138 
0.0166952 -0.04537 0.0811202 0.0207561 -0.0450703 0.0811193 -0.0249264 -0.0418497 0.0822043 
-0.0205817 -0.0417051 0.0811028 -0.0183485 -0.0433613 0.0822095 -0.0125648 -0.0437976 0.0811205 
-0.0111843 -0.0410979 0.0811207 -0.00423258 -0.0438014 0.0811132 -0.00466184 -0.0408435 0.0811079 
-0.00171042 -0.0416769 0.0811205 0.00173767 -0.0435709 0.0821144 0.00639106 -0.0416673 0.0821208 
0.0157136 -0.0416232 0.0821177 0.0208074 -0.0403026 0.0821182 0.0234741 -0.043808 0.0811198 
0.0259873 -0.0421839 0.0811165 0.0286008 -0.0406496 0.0811205 -0.0290473 -0.0390191 0.0821185 
-0.0237359 -0.0381367 0.0811202 -0.0198548 -0.0379037 0.0821172 -0.0152581 -0.0402848 0.0821175 
-0.0099798 -0.0381403 0.0811211 -0.00765382 -0.0404001 0.0811206 -0.00310384 -0.0374409 0.0824754 
0.00269435 -0.0398252 0.0811155 0.0125567 -0.0377405 0.0823717 0.02488 -0.0391481 0.0811205 
0.0310362 -0.0387248 0.0811205 0.0334343 -0.0368153 0.0811171 -0.0364592 -0.0337305 0.0811141 
-0.0329076 -0.0358058 0.0821152 -0.028246 -0.0352275 0.08112 -0.0252492 -0.0355408 0.081118 
-0.0223313 -0.034844 0.0811175 -0.019378 -0.0340219 0.0811205 -0.0157025 -0.035177 0.0826548 
-0.0109429 -0.0336971 0.0821211 -0.0067927 -0.0357464 0.0811177 0.00199291 -0.035774 0.0821553 
0.00683291 -0.0359967 0.0811205 0.010037 -0.0334218 0.0822037 0.016254 -0.0360584 0.0811205 
0.0191869 -0.0353834 0.0811205 0.0231847 -0.0347058 0.0821147 0.0280425 -0.0358765 0.0821179 
0.0316288 -0.0344257 0.0811201 0.0353585 -0.0333902 0.0821195 -0.0388345 -0.030855 0.0811196 
-0.0301729 -0.032913 0.0811172 -0.0322776 -0.0307765 0.0811227 -0.0268379 -0.0325807 0.0811207 
-0.0249641 -0.0302401 0.0811206 -0.0223762 -0.0318039 0.0811222 -0.0175393 -0.0316183 0.0815916 
-0.0140548 -0.031245 0.0811205 -0.00659442 -0.0325993 0.0811205 -0.00248862 -0.0320882 0.0821183 
0.0059368 -0.0305611 0.0822426 0.0155694 -0.0322075 0.082151 0.0196822 -0.0319916 0.0811205 
0.0237367 -0.0308673 0.0811207 0.0292574 -0.0321433 0.0811203 0.0320665 -0.0309931 0.081124 
0.0384792 -0.0311024 0.0811201 -0.0406962 -0.0284346 0.0811203 -0.0376518 -0.0281001 0.0811312 
-0.0349327 -0.0293634 0.0811206 -0.033071 -0.0269482 0.0811205 -0.0287281 -0.0292172 0.0821765 
-0.0254031 -0.0272737 0.0811235 -0.0199489 -0.0298401 0.0812638 -0.0225569 -0.0283382 0.0811207 
-0.0204275 -0.0262209 0.0812484 -0.0178115 -0.0276842 0.0814042 -0.0137185 -0.0271429 0.0821168 
-0.00905027 -0.028971 0.0821176 -0.00111683 -0.0282615 0.0811205 0.00197591 -0.0280118 0.0816057 
0.00842725 -0.0276342 0.0810955 0.0119354 -0.0296028 0.0811349 0.0112451 -0.0266319 0.0811196 
0.0147359 -0.0284207 0.0811201 0.017311 -0.0268173 0.0811626 0.0215953 -0.0274876 0.0821179 
0.0254466 -0.0282573 0.0813455 0.0296732 -0.0291728 0.0811278 0.0351431 -0.0283978 0.0821166 
0.0404203 -0.028819 0.0811213 -0.0424218 -0.0258007 0.0811234 -0.0394261 -0.0256836 0.0811237 
-0.0355836 -0.0252648 0.0811205 -0.0325135 -0.0239511 0.0811129 -0.0300066 -0.0255841 0.0811185 
-0.023412 -0.0250397 0.0811151 -0.0265369 -0.0244784 0.0811446 -0.0174148 -0.0246123 0.0811204 
-0.0134079 -0.0231283 0.0811205 -0.0087778 -0.0250843 0.0811201 -0.00476531 -0.0245201 0.0811217 
-0.00163693 -0.0252104 0.0811205 0.00236455 -0.0246224 0.0811205 0.00566225 -0.0248865 0.0811215 
0.00888345 -0.0246532 0.0811228 0.0116928 -0.0235978 0.0811188 0.0140227 -0.0255054 0.0812114 
0.0196236 -0.0241447 0.0811674 0.024403 -0.0233224 0.0821178 0.0273442 -0.0259434 0.0811382 
0.0310758 -0.0245784 0.0821219 0.0368425 -0.0240395 0.0811248 0.0388466 -0.0262698 0.0811201 
0.0397737 -0.0234193 0.0811191 0.0419999 -0.0261431 0.0811183 -0.0435395 -0.0217033 0.0821222 
-0.0400382 -0.0196164 0.0811588 -0.0398152 -0.0227112 0.0811114 -0.0353744 -0.0213595 0.0821169 
-0.031594 -0.0205528 0.0811156 -0.0242503 -0.0196366 0.0811205 -0.0207081 -0.0223258 0.0822395 
-0.0168095 -0.0216656 0.0811205 -0.0142621 -0.0200464 0.0811205 -0.0102846 -0.0224943 0.0811181 
-0.00807951 -0.0204499 0.081119 0.000589998 -0.0205288 0.0821136 0.00576825 -0.0218807 0.0811206 
0.00875812 -0.0216575 0.0811185 0.0120159 -0.0206148 0.0811206 0.0151523 -0.0227277 0.0811196 
0.0203075 -0.0203194 0.0821164 0.0240814 -0.019467 0.0811208 0.02813 -0.0218741 0.0821465 
0.0310526 -0.0206834 0.0812251 0.0342869 -0.0224194 0.0811206 0.0378593 -0.0206523 0.0811199 
0.0408587 -0.0206275 0.0811227 0.0446694 -0.0216167 0.0811171 -0.0459791 -0.018681 0.0811205 
-0.0470428 -0.0158503 0.0811164 -0.0440552 -0.0159362 0.0811222 -0.041071 -0.0161033 0.0811197 
-0.037259 -0.0167191 0.0821312 -0.0322635 -0.0174928 0.0810816 -0.0265935 -0.0174994 0.0811128 
-0.0231154 -0.0164025 0.081088 -0.0209597 -0.0184783 0.0811211 -0.0178701 -0.0187747 0.0811203 
-0.0154885 -0.0169496 0.0811208 -0.0124213 -0.0158015 0.081137 -0.011354 -0.0192919 0.0811204 
-0.00856831 -0.0165922 0.0821146 -0.00425427 -0.0192394 0.0821344 -0.00216319 -0.0157977 0.0811205 
0.00429251 -0.0183636 0.0811202 0.00812877 -0.0178294 0.0821163 0.0119641 -0.0172439 0.081119 
0.0154971 -0.0188722 0.082118 0.0184829 -0.0164064 0.0811209 0.0254333 -0.017048 0.0822586 
0.0272856 -0.0191853 0.0811206 0.0281009 -0.0162977 0.0811214 0.0308021 -0.0177009 0.0811095 
0.0346208 -0.0185282 0.0821167 0.0393914 -0.0170344 0.082118 0.0433181 -0.0189193 0.0811148 
-0.0424514 -0.01342 0.0811184 -0.0330942 -0.0136189 0.0821382 -0.0253919 -0.0142753 0.0811406 
-0.0194657 -0.0149224 0.0821754 -0.0148552 -0.0140158 0.0811203 -0.0107276 -0.013301 0.0811205 
-0.00662249 -0.0125752 0.0811041 -0.00328006 -0.0128779 0.0811198 -0.00484529 -0.0151455 0.082301 
0.00156995 -0.0147402 0.082116 0.00678246 -0.0140644 0.0811208 0.00970124 -0.0133217 0.0811195 
0.0132878 -0.0145484 0.0811205 0.0169611 -0.0127481 0.0821178 0.0220316 -0.0148563 0.0821179 
0.0258697 -0.0142938 0.0811191 0.0307309 -0.0134599 0.0821164 0.0357256 -0.0136339 0.0821179 
0.04256 -0.0126975 0.0811205 0.0463316 -0.0149596 0.0821182 -0.0469604 -0.0119941 0.0821095 
-0.0433822 -0.0104922 0.0811201 -0.0385067 -0.0118561 0.0821966 -0.0348435 -0.0100545 0.0811205 
-0.0318092 -0.00983111 0.0811328 -0.0281701 -0.0115247 0.0821567 -0.0232436 -0.01218 0.0811171 
-0.0247349 -0.00957147 0.0811203 -0.0204172 -0.0111873 0.0811193 -0.0170179 -0.0119358 0.0811218 
-0.0181908 -0.00917741 0.0811192 -0.0131325 -0.0114204 0.0811164 -0.015197 -0.00925022 0.0811187 
-0.0103685 -0.0102607 0.0811216 -0.00406921 -0.00853121 0.0811197 -0.00047921 -0.0101742 0.0821157 
0.00340978 -0.0108168 0.0811205 0.0073785 -0.0102223 0.0821172 0.0124495 -0.0105927 0.0821182 
0.0160306 -0.00898827 0.0811205 0.0211319 -0.00990751 0.0821158 0.0339435 -0.0101236 0.0811202 
0.0369634 -0.00993769 0.0811205 0.0392141 -0.0119526 0.0811198 0.0415588 -0.00877911 0.0821179 
0.0452047 -0.0111985 0.0811205 0.0484356 -0.0109398 0.0811204 -0.0488827 -0.00863735 0.0811195 
-0.0459771 -0.00791518 0.0811191 -0.0409386 -0.00748694 0.0821163 -0.0370426 -0.00792003 0.0811205 
-0.0334553 -0.0073259 0.0811195 -0.0299935 -0.00741378 0.0811205 -0.0269863 -0.00759073 0.0811192 
-0.0215653 -0.00728981 0.0821247 -0.0166968 -0.00650454 0.0811164 -0.0138319 -0.00559396 0.0811146 
-0.01246 -0.00818602 0.081711 -0.0107243 -0.00581346 0.0811204 -0.00708897 -0.00830282 0.0811208 
-0.00745636 -0.00525901 0.0811205 0.0021865 -0.00736767 0.0811194 0.0045875 -0.00557419 0.081118 
0.00765472 -0.00582112 0.0811208 0.0101924 -0.00744791 0.0811197 0.0139453 -0.00682414 0.0811157 
0.0184578 -0.00710835 0.0811199 0.0224978 -0.00626887 0.0811206 0.0263168 -0.0056168 0.0821183 
0.0304396 -0.00845612 0.0821166 0.034487 -0.00542391 0.0821183 0.0380572 -0.00712997 0.0811203 
0.0460191 -0.00829149 0.0811188 0.0490226 -0.00785675 0.0811222 -0.0494707 -0.00401728 0.0811198 
-0.0447435 -0.00424854 0.0821153 -0.0392755 -0.00253054 0.0821183 -0.0357649 -0.00499048 0.0811292 
-0.0316198 -0.00483284 0.0811205 -0.0298008 -0.00219309 0.0811199 -0.0284094 -0.00486212 0.0811205 
-0.0262791 -0.00259545 0.0811197 -0.0248489 -0.00523629 0.0811218 -0.0216863 -0.00332975 0.0811214 
-0.0189116 -0.00446976 0.0811202 -0.0160464 -0.00357563 0.0811208 -0.0129878 -0.00254506 0.0811174 
-0.00963734 -0.0030193 0.081119 -0.00474387 -0.00324487 0.0811226 -0.00203121 -0.00193805 0.0811163 
0.00118963 -0.00222535 0.0811161 0.00422416 -0.00259133 0.0811206 0.0080633 -0.00194403 0.0821179 
0.0116802 -0.00469412 0.0811205 0.0152343 -0.00403335 0.0811187 0.0174999 -0.00192444 0.0811198 
0.0204198 -0.00410386 0.0811182 0.027979 -0.00176462 0.0811205 0.0307058 -0.00459483 0.0811201 
0.0359297 -0.00181865 0.0811195 0.0381341 -0.00413358 0.0811203 0.0409826 -0.00474875 0.0821299 
0.0417907 -0.00185031 0.0813989 0.0450268 -0.00431953 0.0821182 0.0494132 -0.00482296 0.0811205 
-0.0497086 -0.000497983 0.0811193 -0.0467588 -0.000956556 0.0811145 -0.0432012 0.000551037 0.0821045 
-0.0369707 0.000841611 0.0811292 -0.0338486 -0.0015067 0.0821432 -0.0305575 0.000707414 0.0811208 
-0.026208 0.000537625 0.0811205 -0.0236828 -0.00109084 0.0811204 -0.0193119 -0.00127979 0.0811222 
-0.0156034 0.000310266 0.0821167 -0.010382 -9.78497e-05 0.0811197 -0.00612691 -0.000125799 0.0811204 
-0.000101694 0.00141729 0.0821176 0.00452801 0.000391199 0.0811204 0.0129678 -0.000848343 0.0821157 
[...]
POINT_DATA 1213
FIELD FieldData 7
id 1 1213 int
207 96 228 273 172 50 19 151 199 
262 51 11 506 48 457 100 637 277 
187 423 239 161 279 2 164 595 290 
137 59 394 741 422 371 695 499 597 
390 18 297 213 269 412 113 396 708 
675 257 854 90 545 180 211 34 21 
193 416 119 171 178 459 492 590 426 
203 208 184 409 719 77 293 736 496 
58 661 191 582 44 721 564 398 166 
97 600 790 216 88 304 583 168 527 
562 329 352 846 548 362 345 619 87 
495 46 510 969 670 618 916 491 319 
289 568 38 740 433 6 381 24 342 
351 750 407 192 480 685 634 549 303 
523 449 529 92 621 110 72 74 298 
408 428 460 522 868 94 338 421 870 
252 485 557 378 702 364 332 300 645 
802 63 366 709 175 176 274 519 606 
134 584 261 173 830 287 842 542 515 
384 169 547 541 310 620 43 98 493 
594 444 554 473 222 140 149 425 62 
272 76 431 138 531 636 435 102 478 
367 476 462 69 80 630 128 221 259 
464 4 306 266 539 153 49 165 275 
39 331 286 32 250 486 580 28 372 
95 131 227 86 662 160 318 267 294 
382 183 613 383 521 125 15 70 45 
753 280 699 141 124 204 249 665 845 
64 237 93 14 334 406 10 238 520 
156 209 509 544 441 561 253 218 9 
154 33 263 370 12 264 688 375 106 
84 241 353 35 556 202 205 109 13 
162 130 82 85 354 79 217 197 36 
291 481 356 146 622 292 55 276 104 
155 122 245 224 337 159 363 593 255 
442 157 1 215 357 126 317 57 89 
111 22 53 439 212 40 775 453 3 
229 336 112 179 265 256 490 350 698 
429 312 144 268 314 20 502 347 543 
447 115 54 436 254 427 339 573 270 
244 129 326 158 23 399 749 467 143 
320 373 446 322 311 117 235 385 150 
295 285 649 528 711 330 599 284 555 
505 494 374 75 167 305 288 105 61 
120 574 456 8 569 451 71 671 380 
768 767 793 535 500 558 722 324 581 
530 615 810 369 368 389 404 644 365 
5 651 633 415 804 349 225 788 654 
893 601 536 635 570 301 585 706 219 
707 653 145 29 83 470 879 712 627 
108 726 513 782 487 658 625 488 468 
484 567 393 401 728 234 174 359 327 
41 25 466 701 118 801 885 360 533 
147 465 91 643 181 587 188 139 443 
420 856 639 283 200 201 47 17 214 
376 190 729 717 571 189 524 803 313 
686 395 73 761 103 37 518 42 148 
403 391 714 612 417 455 177 514 231 
623 361 31 471 282 315 101 226 68 
335 302 121 379 483 501 307 445 598 
206 632 26 194 142 503 78 477 195 
325 281 534 196 668 760 730 440 482 
198 99 236 432 611 170 474 904 869 
684 16 572 135 123 251 242 309 114 
60 461 52 344 81 328 136 152 56 
414 243 7 402 186 507 743 479 739 
646 608 825 614 758 824 877 831 948 
624 596 358 607 800 876 642 498 1046 
853 1035 278 592 690 538 946 1010 1055 
576 811 677 672 805 786 816 778 889 
667 951 454 1021 553 258 834 603 1058 
704 1029 972 966 738 908 858 723 971 
550 943 752 566 970 958 240 271 1004 
185 1019 826 526 806 998 984 377 733 
848 511 785 720 787 766 296 897 694 
419 66 648 626 504 905 909 772 65 
617 299 693 713 260 659 563 844 609 
724 666 779 517 774 127 827 30 230 
602 588 742 512 829 915 725 655 918 
747 233 660 400 132 67 888 678 967 
638 715 703 859 940 919 734 815 579 
497 833 755 841 817 163 232 589 697 
839 650 463 343 452 727 133 776 631 
956 818 591 321 316 896 851 770 551 
392 882 664 1007 921 410 348 765 525 
647 769 819 990 397 746 812 559 610 
867 994 323 341 641 955 823 737 906 
964 855 418 413 843 1016 689 560 942 
926 865 813 953 731 756 949 691 979 
437 710 887 430 902 954 792 577 246 
789 840 781 508 680 629 735 764 532 
679 864 860 871 907 308 716 696 674 
941 676 210 794 891 852 796 687 923 
333 552 388 847 771 832 355 933 892 
472 586 777 469 754 1036 880 604 450 
223 27 835 700 681 807 652 866 791 
828 605 762 978 340 458 673 424 516 
683 546 578 248 656 751 799 850 763 
798 862 935 1043 182 1032 997 682 947 
968 575 991 875 718 917 987 1061 903 
438 1011 1056 960 1050 989 820 884 757 
925 1033 1014 759 565 912 977 1047 1025 
999 910 489 874 346 628 944 838 1015 
744 883 780 795 849 894 878 657 911 
981 927 900 1031 107 732 899 863 924 
988 411 995 809 993 821 836 934 936 
748 872 913 783 937 116 616 929 1051 
837 540 939 931 475 959 669 1008 886 
405 434 901 890 945 1030 705 963 1026 
745 386 1039 1022 1054 1000 822 1049 857 
938 973 797 932 975 640 387 920 808 
976 692 663 962 1005 448 537 898 961 
220 1048 930 985 983 881 952 1038 861 
982 1023 928 1062 1034 1017 1042 773 992 
1024 950 1064 922 1001 986 1044 784 1012 
873 247 914 814 1040 1070 974 1013 1073 
965 1020 1072 1067 895 1081 1009 1053 957 
980 1082 996 1076 1068 1080 1074 1079 1065 
1078 1006 1063 1002 1095 1075 1086 1093 1045 
1092 1097 1057 1094 1091 1088 1083 1090 1059 
1106 1052 1105 1104 1103 1111 1107 1101 1108 
1110 1028 1085 1018 1060 1003 1041 1109 1102 
1066 1100 1123 1118 1084 1117 1071 1037 1069 
1114 1113 1121 1122 1099 1119 1115 1124 1120 
1077 1134 1133 1132 1126 1129 1136 1131 1135 
1125 1128 1027 1138 1145 1142 1087 1130 1137 
1127 1148 1141 1149 1139 1096 1144 1089 1147 
1116 1112 1143 1146 1098 1140 1162 1155 1156 
1160 1153 1150 1152 1161 1157 1159 1158 1151 
1154 1175 1168 1169 1174 1164 1170 1166 1173 
1163 1165 1167 1171 1176 1172 1183 1182 1181 
1187 1179 1178 1185 1180 1177 1184 1186 1196 
1189 1199 1195 1193 1200 1191 1197 1188 1198 
1190 1192 1209 1194 1213 1206 1208 1201 1207 
1204 1211 1212 1205 1202 1203 1210 
type 1 1213 int
1 1 1 1 1 1 1 1 1 
1 1 1 1 1 1 1 1 1 
1 1 1 1 1 1 1 1 1 
1 1 1 1 1 1 1 1 1 
1 1 1 1 1 1 1 1 1 
1 1 1 1 1 1 1 1 1 
1 1 1 1 1 1 1 1 1 
1 1 1 1 1 1 1 1 1 
1 1 1 1 1 1 1 1 1 
1 1 1 1 1 1 1 1 1 
1 1 1 1 1 1 1 1 1 
1 1 1 1 1 1 1 1 1 
1 1 1 1 1 1 1 1 1 
1 1 1 1 1 1 1 1 1 
1 1 1 1 1 1 1 1 1 
1 1 1 1 1 1 1 1 1 
1 1 1 1 1 1 1 1 1 
1 1 1 1 1 1 1 1 1 
1 1 1 1 1 1 1 1 1 
1 1 1 1 1 1 1 1 1 
1 1 1 1 1 1 1 1 1 
1 1 1 1 1 1 1 1 1 
1 1 1 1 1 1 1 1 1 
1 1 1 1 1 1 1 1 1 
1 1 1 1 1 1 1 1 1 
1 1 1 1 1 1 1 1 1 
1 1 1 1 1 1 1 1 1 
1 1 1 1 1 1 1 1 1 
1 1 1 1 1 1 1 1 1 
1 1 1 1 1 1 1 1 1 
1 1 1 1 1 1 1 1 1 
1 1 1 1 1 1 1 1 1 
1 1 1 1 1 1 1 1 1 
1 1 1 1 1 1 1 1 1 
1 1 1 1 1 1 1 1 1 
1 1 1 1 1 1 1 1 1 
1 1 1 1 1 1 1 1 1 
1 1 1 1 1 1 1 1 1 
1 1 1 1 1 1 1 1 1 
1 1 1 1 1 1 1 1 1 
1 1 1 1 1 1 1 1 1 
1 1 1 1 1 1 1 1 1 
1 1 1 1 1 1 1 1 1 
1 1 1 1 1 1 1 1 1 
1 1 1 1 1 1 1 1 1 
1 1 1 1 1 1 1 1 1 
1 1 1 1 1 1 1 1 1 
1 1 1 1 1 1 1 1 1 
1 1 1 1 1 1 1 1 1 
1 1 1 1 1 1 1 1 1 
1 1 1 1 1 1 1 1 1 
1 1 1 1 1 1 1 1 1 
1 1 1 1 1 1 1 1 1 
1 1 1 1 1 1 1 1 1 
1 1 1 1 1 1 1 1 1 
1 1 1 1 1 1 1 1 1 
1 1 1 1 1 1 1 1 1 
1 1 1 1 1 1 1 1 1 
1 1 1 1 1 1 1 1 1 
1 1 1 1 1 1 1 1 1 
1 1 1 1 1 1 1 1 1 
1 1 1 1 1 1 1 1 1 
1 1 1 1 1 1 1 1 1 
1 1 1 1 1 1 1 1 1 
1 1 1 1 1 1 1 1 1 
1 1 1 1 1 1 1 1 1 
1 1 1 1 1 1 1 1 1 
1 1 1 1 1 1 1 1 1 
1 1 1 1 1 1 1 1 1 
1 1 1 1 1 1 1 1 1 
1 1 1 1 1 1 1 1 1 
1 1 1 1 1 1 1 1 1 
1 1 1 1 1 1 1 1 1 
1 1 1 1 1 1 1 1 1 
1 1 1 1 1 1 1 1 1 
1 1 1 1 1 1 1 1 1 
1 1 1 1 1 1 1 1 1 
1 1 1 1 1 1 1 1 1 
1 1 1 1 1 1 1 1 1 
1 1 1 1 1 1 1 1 1 
1 1 1 1 1 1 1 1 1 
1 1 1 1 1 1 1 1 1 
1 1 1 1 1 1 1 1 1 
1 1 1 1 1 1 1 1 1 
1 1 1 1 1 1 1 1 1 
1 1 1 1 1 1 1 1 1 
1 1 1 1 1 1 1 1 1 
1 1 1 1 1 1 1 1 1 
1 1 1 1 1 1 1 1 1 
1 1 1 1 1 1 1 1 1 
1 1 1 1 1 1 1 1 1 
1 1 1 1 1 1 1 1 1 
1 1 1 1 1 1 1 1 1 
1 1 1 1 1 1 1 1 1 
1 1 1 1 1 1 1 1 1 
1 1 1 1 1 1 1 1 1 
1 1 1 1 1 1 1 1 1 
1 1 1 1 1 1 1 1 1 
1 1 1 1 1 1 1 1 1 
1 1 1 1 1 1 1 1 1 
1 1 1 1 1 1 1 1 1 
1 1 1 1 1 1 1 1 1 
1 1 1 1 1 1 1 1 1 
1 1 1 1 1 1 1 1 1 
1 1 1 1 1 1 1 1 1 
1 1 1 1 1 1 1 1 1 
1 1 1 1 1 1 1 1 1 
1 1 1 1 1 1 1 1 1 
1 1 1 1 1 1 1 1 1 
1 1 1 1 1 1 1 1 1 
1 1 1 1 1 1 1 1 1 
1 1 1 1 1 1 1 1 1 
1 1 1 1 1 1 1 1 1 
1 1 1 1 1 1 1 1 1 
1 1 1 1 1 1 1 1 1 
1 1 1 1 1 1 1 1 1 
1 1 1 1 1 1 1 1 1 
1 1 1 1 1 1 1 1 1 
1 1 1 1 1 1 1 1 1 
1 1 1 1 1 1 1 1 1 
1 1 1 1 1 1 1 1 1 
1 1 1 1 1 1 1 1 1 
1 1 1 1 1 1 1 1 1 
1 1 1 1 1 1 1 1 1 
1 1 1 1 1 1 1 1 1 
1 1 1 1 1 1 1 1 1 
1 1 1 1 1 1 1 1 1 
1 1 1 1 1 1 1 1 1 
1 1 1 1 1 1 1 1 1 
1 1 1 1 1 1 1 1 1 
1 1 1 1 1 1 1 1 1 
1 1 1 1 1 1 1 1 1 
1 1 1 1 1 1 1 1 1 
1 1 1 1 1 1 1 1 1 
1 1 1 1 1 1 1 
i 3 1213 int
0 0 0 0 0 0 0 0 0 
0 0 0 0 0 0 0 0 0 
0 0 0 0 0 0 0 0 0 
0 0 0 0 0 0 0 0 0 
0 0 0 0 0 0 0 0 0 
0 0 0 0 0 0 0 0 0 
0 0 0 0 0 0 0 0 0 
0 0 0 0 0 0 0 0 0 
0 0 0 0 0 0 0 0 0 
0 0 0 0 0 0 0 0 0 
0 0 0 0 0 0 0 0 0 
0 0 0 0 0 0 0 0 0 
0 0 0 0 0 0 0 0 0 
0 0 0 0 0 0 0 0 0 
0 0 0 0 0 0 0 0 0 
0 0 0 0 0 0 0 0 0 
0 0 0 0 0 0 0 0 0 
0 0 0 0 0 0 0 0 0 
0 0 0 0 0 0 0 0 0 
0 0 0 0 0 0 0 0 0 
0 0 0 0 0 0 0 0 0 
0 0 0 0 0 0 0 0 0 
0 0 0 0 0 0 0 0 0 
0 0 0 0 0 0 0 0 0 
0 0 0 0 0 0 0 0 0 
0 0 0 0 0 0 0 0 0 
0 0 0 0 0 0 0 0 0 
0 0 0 0 0 0 0 0 0 
0 0 0 0 0 0 0 0 0 
0 0 0 0 0 0 0 0 0 
0 0 0 0 0 0 0 0 0 
0 0 0 0 0 0 0 0 0 
0 0 0 0 0 0 0 0 0 
0 0 0 0 0 0 0 0 0 
0 0 0 0 0 0 0 0 0 
0 0 0 0 0 0 0 0 0 
0 0 0 0 0 0 0 0 0 
0 0 0 0 0 0 0 0 0 
0 0 0 0 0 0 0 0 0 
0 0 0 0 0 0 0 0 0 
0 0 0 0 0 0 0 0 0 
0 0 0 0 0 0 0 0 0 
0 0 0 0 0 0 0 0 0 
0 0 0 0 0 0 0 0 0 
0 0 0 0 0 0 0 0 0 
0 0 0 0 0 0 0 0 0 
0 0 0 0 0 0 0 0 0 
0 0 0 0 0 0 0 0 0 
0 0 0 0 0 0 0 0 0 
0 0 0 0 0 0 0 0 0 
0 0 0 0 0 0 0 0 0 
0 0 0 0 0 0 0 0 0 
0 0 0 0 0 0 0 0 0 
0 0 0 0 0 0 0 0 0 
0 0 0 0 0 0 0 0 0 
0 0 0 0 0 0 0 0 0 
0 0 0 0 0 0 0 0 0 
0 0 0 0 0 0 0 0 0 
0 0 0 0 0 0 0 0 0 
0 0 0 0 0 0 0 0 0 
0 0 0 0 0 0 0 0 0 
0 0 0 0 0 0 0 0 0 
0 0 0 0 0 0 0 0 0 
0 0 0 0 0 0 0 0 0 
0 0 0 0 0 0 0 0 0 
0 0 0 0 0 0 0 0 0 
0 0 0 0 0 0 0 0 0 
0 0 0 0 0 0 0 0 0 
0 0 0 0 0 0 0 0 0 
0 0 0 0 0 0 0 0 0 
0 0 0 0 0 0 0 0 0 
0 0 0 0 0 0 0 0 0 
0 0 0 0 0 0 0 0 0 
0 0 0 0 0 0 0 0 0 
0 0 0 0 0 0 0 0 0 
0 0 0 0 0 0 0 0 0 
0 0 0 0 0 0 0 0 0 
0 0 0 0 0 0 0 0 0 
0 0 0 0 0 0 0 0 0 
0 0 0 0 0 0 0 0 0 
0 0 0 0 0 0 0 0 0 
0 0 0 0 0 0 0 0 0 
0 0 0 0 0 0 0 0 0 
0 0 0 0 0 0 0 0 0 
0 0 0 0 0 0 0 0 0 
0 0 0 0 0 0 0 0 0 
0 0 0 0 0 0 0 0 0 
0 0 0 0 0 0 0 0 0 
0 0 0 0 0 0 0 0 0 
0 0 0 0 0 0 0 0 0 
0 0 0 0 0 0 0 0 0 
0 0 0 0 0 0 0 0 0 
0 0 0 0 0 0 0 0 0 
0 0 0 0 0 0 0 0 0 
0 0 0 0 0 0 0 0 0 
0 0 0 0 0 0 0 0 0 
0 0 0 0 0 0 0 0 0 
0 0 0 0 0 0 0 0 0 
0 0 0 0 0 0 0 0 0 
0 0 0 0 0 0 0 0 0 
0 0 0 0 0 0 0 0 0 
0 0 0 0 0 0 0 0 0 
0 0 0 0 0 0 0 0 0 
0 0 0 0 0 0 0 0 0 
0 0 0 0 0 0 0 0 0 
0 0 0 0 0 0 0 0 0 
0 0 0 0 0 0 0 0 0 
0 0 0 0 0 0 0 0 0 
0 0 0 0 0 0 0 0 0 
0 0 0 0 0 0 0 0 0 
0 0 0 0 0 0 0 0 0 
0 0 0 0 0 0 0 0 0 
0 0 0 0 0 0 0 0 0 
0 0 0 0 0 0 0 0 0 
0 0 0 0 0 0 0 0 0 
0 0 0 0 0 0 0 0 0 
0 0 0 0 0 0 0 0 0 
0 0 0 0 0 0 0 0 0 
0 0 0 0 0 0 0 0 0 
0 0 0 0 0 0 0 0 0 
0 0 0 0 0 0 0 0 0 
0 0 0 0 0 0 0 0 0 
0 0 0 0 0 0 0 0 0 
0 0 0 0 0 0 0 0 0 
0 0 0 0 0 0 0 0 0 
0 0 0 0 0 0 0 0 0 
0 0 0 0 0 0 0 0 0 
0 0 0 0 0 0 0 0 0 
0 0 0 0 0 0 0 0 0 
0 0 0 0 0 0 0 0 0 
0 0 0 0 0 0 0 0 0 
0 0 0 0 0 0 0 0 0 
0 0 0 0 0 0 0 0 0 
0 0 0 0 0 0 0 0 0 
0 0 0 0 0 0 0 0 0 
0 0 0 0 0 0 0 0 0 
0 0 0 0 0 0 0 0 0 
0 0 0 0 0 0 0 0 0 
0 0 0 0 0 0 0 0 0 
0 0 0 0 0 0 0 0 0 
0 0 0 0 0 0 0 0 0 
0 0 0 0 0 0 0 0 0 
0 0 0 0 0 0 0 0 0 
0 0 0 0 0 0 0 0 0 
0 0 0 0 0 0 0 0 0 
0 0 0 0 0 0 0 0 0 
0 0 0 0 0 0 0 0 0 
0 0 0 0 0 0 0 0 0 
0 0 0 0 0 0 0 0 0 
0 0 0 0 0 0 0 0 0 
0 0 0 0 0 0 0 0 0 
0 0 0 0 0 0 0 0 0 
0 0 0 0 0 0 0 0 0 
0 0 0 0 0 0 0 0 0 
0 0 0 0 0 0 0 0 0 
0 0 0 0 0 0 0 0 0 
0 0 0 0 0 0 0 0 0 
0 0 0 0 0 0 0 0 0 
0 0 0 0 0 0 0 0 0 
0 0 0 0 0 0 0 0 0 
0 0 0 0 0 0 0 0 0 
0 0 0 0 0 0 0 0 0 
0 0 0 0 0 0 0 0 0 
0 0 0 0 0 0 0 0 0 
0 0 0 0 0 0 0 0 0 
0 0 0 0 0 0 0 0 0 
0 0 0 0 0 0 0 0 0 
0 0 0 0 0 0 0 0 0 
0 0 0 0 0 0 0 0 0 
0 0 0 0 0 0 0 0 0 
0 0 0 0 0 0 0 0 0 
0 0 0 0 0 0 0 0 0 
0 0 0 0 0 0 0 0 0 
0 0 0 0 0 0 0 0 0 
0 0 0 0 0 0 0 0 0 
0 0 0 0 0 0 0 0 0 
0 0 0 0 0 0 0 0 0 
0 0 0 0 0 0 0 0 0 
0 0 0 0 0 0 0 0 0 
0 0 0 0 0 0 0 0 0 
0 0 0 0 0 0 0 0 0 
0 0 0 0 0 0 0 0 0 
0 0 0 0 0 0 0 0 0 
0 0 0 0 0 0 0 0 0 
0 0 0 0 0 0 0 0 0 
0 0 0 0 0 0 0 0 0 
0 0 0 0 0 0 0 0 0 
0 0 0 0 0 0 0 0 0 
0 0 0 0 0 0 0 0 0 
0 0 0 0 0 0 0 0 0 
0 0 0 0 0 0 0 0 0 
0 0 0 0 0 0 0 0 0 
0 0 0 0 0 0 0 0 0 
0 0 0 0 0 0 0 0 0 
0 0 0 0 0 0 0 0 0 
0 0 0 0 0 0 0 0 0 
0 0 0 0 0 0 0 0 0 
0 0 0 0 0 0 0 0 0 
0 0 0 0 0 0 0 0 0 
0 0 0 0 0 0 0 0 0 
0 0 0 0 0 0 0 0 0 
0 0 0 0 0 0 0 0 0 
0 0 0 0 0 0 0 0 0 
0 0 0 0 0 0 0 0 0 
0 0 0 0 0 0 0 0 0 
0 0 0 0 0 0 0 0 0 
0 0 0 0 0 0 0 0 0 
0 0 0 0 0 0 0 0 0 
0 0 0 0 0 0 0 0 0 
0 0 0 0 0 0 0 0 0 
0 0 0 0 0 0 0 0 0 
0 0 0 0 0 0 0 0 0 
0 0 0 0 0 0 0 0 0 
0 0 0 0 0 0 0 0 0 
0 0 0 0 0 0 0 0 0 
0 0 0 0 0 0 0 0 0 
0 0 0 0 0 0 0 0 0 
0 0 0 0 0 0 0 0 0 
0 0 0 0 0 0 0 0 0 
0 0 0 0 0 0 0 0 0 
0 0 0 0 0 0 0 0 0 
0 0 0 0 0 0 0 0 0 
0 0 0 0 0 0 0 0 0 
0 0 0 0 0 0 0 0 0 
0 0 0 0 0 0 0 0 0 
0 0 0 0 0 0 0 0 0 
0 0 0 0 0 0 0 0 0 
0 0 0 0 0 0 0 0 0 
0 0 0 0 0 0 0 0 0 
0 0 0 0 0 0 0 0 0 
0 0 0 0 0 0 0 0 0 
0 0 0 0 0 0 0 0 0 
0 0 0 0 0 0 0 0 0 
0 0 0 0 0 0 0 0 0 
0 0 0 0 0 0 0 0 0 
0 0 0 0 0 0 0 0 0 
0 0 0 0 0 0 0 0 0 
0 0 0 0 0 0 0 0 0 
0 0 0 0 0 0 0 0 0 
0 0 0 0 0 0 0 0 0 
0 0 0 0 0 0 0 0 0 
0 0 0 0 0 0 0 0 0 
0 0 0 0 0 0 0 0 0 
0 0 0 0 0 0 0 0 0 
0 0 0 0 0 0 0 0 0 
0 0 0 0 0 0 0 0 0 
0 0 0 0 0 0 0 0 0 
0 0 0 0 0 0 0 0 0 
0 0 0 0 0 0 0 0 0 
0 0 0 0 0 0 0 0 0 
0 0 0 0 0 0 0 0 0 
0 0 0 0 0 0 0 0 0 
0 0 0 0 0 0 0 0 0 
0 0 0 0 0 0 0 0 0 
0 0 0 0 0 0 0 0 0 
0 0 0 0 0 0 0 0 0 
0 0 0 0 0 0 0 0 0 
0 0 0 0 0 0 0 0 0 
0 0 0 0 0 0 0 0 0 
0 0 0 0 0 0 0 0 0 
0 0 0 0 0 0 0 0 0 
0 0 0 0 0 0 0 0 0 
0 0 0 0 0 0 0 0 0 
0 0 0 0 0 0 0 0 0 
0 0 0 0 0 0 0 0 0 
0 0 0 0 0 0 0 0 0 
0 0 0 0 0 0 0 0 0 
0 0 0 0 0 0 0 0 0 
0 0 0 0 0 0 0 0 0 
0 0 0 0 0 0 0 0 0 
0 0 0 0 0 0 0 0 0 
0 0 0 0 0 0 0 0 0 
0 0 0 0 0 0 0 0 0 
0 0 0 0 0 0 0 0 0 
0 0 0 0 0 0 0 0 0 
0 0 0 0 0 0 0 0 0 
0 0 0 0 0 0 0 0 0 
0 0 0 0 0 0 0 0 0 
0 0 0 0 0 0 0 0 0 
0 0 0 0 0 0 0 0 0 
0 0 0 0 0 0 0 0 0 
0 0 0 0 0 0 0 0 0 
0 0 0 0 0 0 0 0 0 
0 0 0 0 0 0 0 0 0 
0 0 0 0 0 0 0 0 0 
0 0 0 0 0 0 0 0 0 
0 0 0 0 0 0 0 0 0 
0 0 0 0 0 0 0 0 0 
0 0 0 0 0 0 0 0 0 
0 0 0 0 0 0 0 0 0 
0 0 0 0 0 0 0 0 0 
0 0 0 0 0 0 0 0 0 
0 0 0 0 0 0 0 0 0 
0 0 0 0 0 0 0 0 0 
0 0 0 0 0 0 0 0 0 
0 0 0 0 0 0 0 0 0 
0 0 0 0 0 0 0 0 0 
0 0 0 0 0 0 0 0 0 
0 0 0 0 0 0 0 0 0 
0 0 0 0 0 0 0 0 0 
0 0 0 0 0 0 0 0 0 
0 0 0 0 0 0 0 0 0 
0 0 0 0 0 0 0 0 0 
0 0 0 0 0 0 0 0 0 
0 0 0 0 0 0 0 0 0 
0 0 0 0 0 0 0 0 0 
0 0 0 0 0 0 0 0 0 
0 0 0 0 0 0 0 0 0 
0 0 0 0 0 0 0 0 0 
0 0 0 0 0 0 0 0 0 
0 0 0 0 0 0 0 0 0 
0 0 0 0 0 0 0 0 0 
0 0 0 0 0 0 0 0 0 
0 0 0 0 0 0 0 0 0 
0 0 0 0 0 0 0 0 0 
0 0 0 0 0 0 0 0 0 
0 0 0 0 0 0 0 0 0 
0 0 0 0 0 0 0 0 0 
0 0 0 0 0 0 0 0 0 
0 0 0 0 0 0 0 0 0 
0 0 0 0 0 0 0 0 0 
0 0 0 0 0 0 0 0 0 
0 0 0 0 0 0 0 0 0 
0 0 0 0 0 0 0 0 0 
0 0 0 0 0 0 0 0 0 
0 0 0 0 0 0 0 0 0 
0 0 0 0 0 0 0 0 0 
0 0 0 0 0 0 0 0 0 
0 0 0 0 0 0 0 0 0 
0 0 0 0 0 0 0 0 0 
0 0 0 0 0 0 0 0 0 
0 0 0 0 0 0 0 0 0 
0 0 0 0 0 0 0 0 0 
0 0 0 0 0 0 0 0 0 
0 0 0 0 0 0 0 0 0 
0 0 0 0 0 0 0 0 0 
0 0 0 0 0 0 0 0 0 
0 0 0 0 0 0 0 0 0 
0 0 0 0 0 0 0 0 0 
0 0 0 0 0 0 0 0 0 
0 0 0 0 0 0 0 0 0 
0 0 0 0 0 0 0 0 0 
0 0 0 0 0 0 0 0 0 
0 0 0 0 0 0 0 0 0 
0 0 0 0 0 0 0 0 0 
0 0 0 0 0 0 0 0 0 
0 0 0 0 0 0 0 0 0 
0 0 0 0 0 0 0 0 0 
0 0 0 0 0 0 0 0 0 
0 0 0 0 0 0 0 0 0 
0 0 0 0 0 0 0 0 0 
0 0 0 0 0 0 0 0 0 
0 0 0 0 0 0 0 0 0 
0 0 0 0 0 0 0 0 0 
0 0 0 0 0 0 0 0 0 
0 0 0 0 0 0 0 0 0 
0 0 0 0 0 0 0 0 0 
0 0 0 0 0 0 0 0 0 
0 0 0 0 0 0 0 0 0 
0 0 0 0 0 0 0 0 0 
0 0 0 0 0 0 0 0 0 
0 0 0 0 0 0 0 0 0 
0 0 0 0 0 0 0 0 0 
0 0 0 0 0 0 0 0 0 
0 0 0 0 0 0 0 0 0 
0 0 0 0 0 0 0 0 0 
0 0 0 0 0 0 0 0 0 
0 0 0 0 0 0 0 0 0 
0 0 0 0 0 0 0 0 0 
0 0 0 0 0 0 0 0 0 
0 0 0 0 0 0 0 0 0 
0 0 0 0 0 0 0 0 0 
0 0 0 0 0 0 0 0 0 
0 0 0 0 0 0 0 0 0 
0 0 0 0 0 0 0 0 0 
0 0 0 0 0 0 0 0 0 
0 0 0 0 0 0 0 0 0 
0 0 0 0 0 0 0 0 0 
0 0 0 0 0 0 0 0 0 
0 0 0 0 0 0 0 0 0 
0 0 0 0 0 0 0 0 0 
0 0 0 0 0 0 0 0 0 
0 0 0 0 0 0 0 0 0 
0 0 0 0 0 0 0 0 0 
0 0 0 0 0 0 0 0 0 
0 0 0 0 0 0 0 0 0 
0 0 0 0 0 0 0 0 0 
0 0 0 0 0 0 0 0 0 
0 0 0 0 0 0 0 0 0 
0 0 0 0 0 0 0 0 0 
0 0 0 0 0 0 0 0 0 
0 0 0 0 0 0 0 0 0 
0 0 0 0 0 0 0 0 0 
0 0 0 0 0 0 0 0 0 
0 0 0 0 0 0 0 0 0 
0 0 0 0 0 0 0 0 0 
0 0 0 0 0 0 0 0 0 
0 0 0 0 0 0 0 0 0 
0 0 0 0 0 0 0 0 0 
0 0 0 0 0 0 0 0 0 
0 0 0 0 0 0 0 0 0 
0 0 0 0 0 0 0 0 0 
0 0 0 0 0 0 0 0 0 
0 0 0 0 0 0 0 0 0 
0 0 0 
v 3 1213 double
0.0246886 -0.019527 0.00246391 0.0272814 -0.0143776 0.00532154 -0.00245928 0.00213171 0.000699128 
0.00459152 -0.00095326 -0.00115782 0.00209903 0.00477799 -0.00158981 0.0023662 0.001943 0.000833732 
0.00166613 8.98637e-05 -0.00186696 -0.000614488 -8.49237e-05 -0.00167983 -0.0123809 -0.00319844 -0.00563098 
0.0091861 -0.00876143 -0.0120476 0.00280189 -0.00680731 0.00373188 -0.00808212 0.00562298 -7.69155e-05 
0.0103116 -0.00244064 5.17402e-06 -0.00133048 0.0271675 0.000143129 0.0131676 0.0198803 -0.0625148 
-0.000517499 -0.00784796 -1.22711e-05 -0.000689495 0.00326404 0.000815949 0.0116326 0.000681071 -6.39978e-05 
0.0107682 0.0352569 1.52227e-05 -3.83559e-05 0.0584727 -0.00988303 -0.0196568 0.0188078 -0.00110666 
-0.0148352 0.00446948 3.47601e-05 -0.0233254 -0.00337642 0.00233343 -0.00503791 0.0116287 0.0535616 
-0.0138383 -0.0139606 0.00311199 0.00597211 -0.0143246 -0.0260997 -0.00071115 -0.0122907 -2.29863e-07 
0.00797953 -0.0176194 0.00033639 0.0160745 -0.00905586 0.00342365 0.00330029 0.000726034 -0.00548775 
0.00543806 0.0277625 -4.61829e-05 0.00552199 -0.00229917 -0.0181691 -0.00566833 0.0427582 -0.00451149 
0.020764 0.0120329 0.00356131 0.0225097 0.00835128 7.58655e-05 -0.0225698 -0.0102837 0.000878221 
-0.0123133 -0.0245701 0.00223707 -0.013862 -0.00937166 2.12309e-06 -0.000562765 0.00422049 0.000374364 
-0.00772154 0.00127223 0.00058483 -0.00330467 -0.0288889 0.000728349 -0.0163083 0.0122715 -0.00074616 
0.0491086 -0.0516696 -0.00019635 0.0867353 -0.0449248 0.000216605 -0.0128597 -0.010971 0.0170731 
0.0172205 0.00767257 -0.00347458 -0.0128484 -0.00938805 -0.00773289 -0.0370042 -0.0177547 -1.85489e-05 
0.0264718 -0.0362047 0.000814901 0.00882724 0.00943567 -0.00109199 -0.00635493 0.00512404 0.000241838 
-0.00453935 0.0053521 -0.000224454 -0.0158392 -0.000357153 -0.00021373 -0.00577121 -0.0032606 0.00219702 
-0.0024561 -0.00898164 -0.00869406 0.018242 -0.0398189 -0.000150141 -0.0030602 -0.0685471 0.0232496 
-0.00896484 -0.00803093 -0.00380597 0.0256369 0.018935 -0.004363 0.000866851 0.00490748 -0.0144569 
0.0130056 0.0100424 7.27206e-09 0.0144126 0.00406147 -0.035927 0.000325996 -0.0132337 -3.32467e-06 
-0.00296528 0.0163488 4.78879e-06 -0.00215985 0.0227329 -0.00148274 -0.00417833 0.00735393 0.00137522 
-0.0014618 0.00690314 -0.00329605 0.000287927 0.00248757 -0.00062143 -0.0166772 -0.0083452 0.000491071 
-0.0404732 -0.00346843 0.00537297 0.00316475 0.0148947 0.00146699 -0.00870936 0.00158311 0.000637264 
-0.00949321 0.010303 -0.0165884 -0.0435986 0.000193225 -0.00137037 0.00593917 -0.0213127 0.0674332 
0.00260485 0.0128757 -3.19569e-08 -0.0200566 -0.00867203 8.6957e-07 -0.00436014 -0.0133235 -0.000248053 
0.0116335 0.00440223 -0.0134972 0.0353184 -0.0113106 -0.0189939 0.0413555 -0.0103276 9.53937e-10 
-0.00815563 0.0318574 -0.000452461 -0.00801822 -0.0080099 0.000600939 -0.00632601 -0.00382092 -0.00527517 
0.00113741 0.00156204 -0.00107532 -0.0197857 0.0143745 8.17857e-05 0.029088 -0.0260173 0.000873136 
0.0458711 -0.00428923 0.000403431 0.0111614 0.0161822 5.33094e-07 0.00962899 0.00141999 -0.00736323 
0.00671155 0.0176778 0.00477184 0.00159368 -0.0276552 -0.0042456 0.00688376 -0.00769797 -0.00128724 
-0.0355705 0.0383682 -0.0142566 -0.0523544 -0.0156308 0.0491205 -0.0430757 0.013344 -0.0044439 
-0.040337 -0.00132934 0.00170216 -0.00844187 0.0120552 9.6132e-06 0.0125834 -0.0265909 0.0914396 
0.1109 -0.0523873 -0.0683339 0.0223618 -0.0155433 -0.0377874 0.0247714 -0.000763332 -0.0118971 
0.00045553 -0.0133779 -0.00117554 0.0124147 0.0046628 0.00312017 0.00217915 0.00999828 0.000972991 
0.00193623 0.0109043 -0.0210444 -0.0170285 -0.00261334 0.0108016 0.00526119 0.00660361 0.00144553 
0.000413339 0.00303972 -0.000143374 0.0180998 -0.00324197 -0.000227148 0.0336986 -0.0108662 0.000970964 
-0.0094259 -0.00658817 1.97151e-06 0.0130413 -0.00563647 0.00388853 0.0164232 0.00357536 -0.00883025 
0.00146483 0.0188843 0.00275123 -0.0784778 -4.10854e-05 -0.00903413 -0.011261 0.0222118 0.00012745 
0.0215035 0.0623278 -2.77665e-05 0.0048296 -0.00693695 -0.00226999 -0.00747604 -0.00333569 -0.00196679 
0.0137412 0.0150281 1.01127e-08 -0.00513529 0.019147 -4.10071e-13 -0.0325982 0.0304447 0.0247411 
0.00322904 -0.00749321 -0.0084822 0.00765038 -0.000845623 -0.00160746 0.0158073 -0.00531986 -0.0237301 
-0.00140727 0.00123003 -0.0240931 0.0231787 -0.00288898 0.00019025 0.0469536 -0.0151986 0.0209567 
0.00871595 -0.00560517 0.00264275 -0.0032239 0.00484262 0.00316758 0.00212611 0.00216402 0.00274722 