# vtk DataFile Version 4.0
Generated by LIGGGHTS
ASCII
DATASET POLYDATA
POINTS 331 float
0.0181063 -0.0437592 0.0811204 -0.0342344 -0.0335911 0.0811407 -0.00660589 -0.0330493 0.0814621 
-0.025359 -0.03111 0.0821183 -0.0374774 -0.0274397 0.0823439 -0.00434549 -0.0310509 0.0811205 
-0.00747248 -0.0266279 0.0813011 -0.0312437 -0.0267597 0.0848129 -0.0436859 -0.0189789 0.0831067 
-0.0221187 -0.013847 0.081507 -0.0231424 -0.00983346 0.0824791 -0.0204544 -0.00839783 0.0825011 
-0.0145665 -0.0078788 0.0811411 -0.0180763 -0.00707945 0.0811488 -0.00831709 -0.00483167 0.0822096 
0.00366757 -0.00085806 0.0821349 -0.0241309 0.00397293 0.0811205 -0.0169233 0.00320542 0.0821183 
0.0312747 0.00192153 0.0821183 0.0404232 0.00490226 0.085629 -0.0350192 0.00693548 0.0811205 
-0.00675766 0.00772676 0.0821243 -0.037385 0.010568 0.0821183 -0.0333524 0.0104285 0.0811205 
0.00370888 0.00734267 0.0844759 0.0481569 0.00942144 0.0811205 -0.0243985 0.0127428 0.0811205 
-0.00408163 0.0121278 0.0822606 0.00220145 0.0134556 0.0821183 -0.0318329 0.0188821 0.0821188 
-0.0268294 0.0162312 0.0811199 -0.0427073 0.0219696 0.0821183 -0.0283947 0.0235111 0.0823425 
-0.0191768 0.0211068 0.082473 -0.00308079 0.0207219 0.0821183 0.0280893 0.0208762 0.0822189 
-0.0347053 0.0217908 0.0811205 0.00786701 0.0228878 0.0821951 -0.0363703 0.029125 0.082118 
-0.0263828 0.0279323 0.0811199 0.0309624 0.0276616 0.0811205 -0.0124255 0.0322979 0.082099 
0.006248 0.0315313 0.0870951 0.0125197 0.0321746 0.0811249 0.0379493 0.030609 0.0832118 
-0.0352042 0.0328359 0.0811298 -0.000540212 0.0334536 0.0811037 -0.000450315 0.0400825 0.082514 
0.00501317 0.0445437 0.0821165 0.0127699 0.0449245 0.0822745 -0.0100326 0.0480235 0.0815116 
0.00263856 0.0491286 0.0811189 0.0156724 -0.0417724 0.0817219 -0.0220173 -0.0387707 0.0837649 
-0.00252419 -0.0385333 0.0831292 0.000534644 -0.0391358 0.0865148 0.013075 -0.0371552 0.0825067 
-0.0187907 -0.0365734 0.0847504 0.0228469 -0.0340423 0.082122 -0.0190338 -0.0321248 0.0854774 
-0.0153941 -0.0326465 0.083908 -0.0154712 -0.0238613 0.0844284 0.00759089 -0.0298001 0.0835422 
0.00426774 -0.021518 0.0832722 -0.0255018 -0.0200669 0.0825828 0.0354582 -0.017457 0.0874222 
-0.0464999 -0.0153316 0.0871791 -0.0218557 -0.0140996 0.084538 -0.00806881 -0.0146952 0.082207 
0.020801 -0.0133088 0.0811969 0.0323769 -0.0150907 0.0865556 -0.0157784 -0.00469938 0.0838226 
-0.0340639 0.00268316 0.0831651 0.00686572 -0.00167885 0.0836598 -0.0230721 -2.9363e-05 0.082471 
0.0436826 0.00635272 0.0839171 -0.0209803 0.00327929 0.0823528 -0.0266712 0.0172022 0.0839618 
0.0175816 0.0274572 0.0870861 0.0396131 0.0269556 0.0828808 -0.0316839 0.0289748 0.0812283 
-0.0161166 0.0288792 0.0815575 -0.0277773 0.0365275 0.0843525 0.0353233 0.0338698 0.0848487 
-0.0121582 0.0378611 0.0872629 -0.00766563 0.0359412 0.0873987 -0.0259759 0.0409493 0.0830983 
0.0091319 0.0413942 0.0822543 -0.0128784 -0.0470662 0.0852065 -0.0158798 -0.039925 0.0863125 
0.00950334 -0.0346704 0.0907834 0.0320949 -0.0311222 0.0846324 -0.0158352 -0.0285597 0.0835708 
-0.0196776 -0.0254291 0.0834699 -0.00330914 -0.0220448 0.0820724 0.00582446 -0.0167578 0.093293 
-0.0341873 -0.00438382 0.0873105 -0.0234881 -0.00565241 0.0822103 -0.00808733 -0.0045628 0.0863622 
0.030053 -0.0056714 0.0900139 -0.0482524 0.00555199 0.0870733 -0.0112036 0.000448771 0.0847966 
0.048621 0.00475851 0.0895764 -0.0349398 0.0148208 0.0877289 -0.0244358 0.0104575 0.0903638 
0.0380996 0.0106842 0.0937369 -0.0437617 0.0106445 0.0811683 -0.0277463 0.0145001 0.0908776 
0.00899849 0.0101077 0.0815235 0.0352803 0.0157496 0.0937336 -0.0135784 0.0174588 0.0866467 
-0.00107695 0.0241046 0.0872008 -0.0152174 0.0323978 0.0861636 -0.0146633 0.0341786 0.0923884 
-0.00447855 0.0494285 0.0872036 -0.00393498 -0.0472802 0.0901121 0.017453 -0.0376727 0.0876055 
0.0307073 -0.0368687 0.0890832 0.00498521 -0.0272705 0.0881441 -0.0102793 -0.0193371 0.0832279 
-0.0238507 -0.0111081 0.0916222 0.0447098 -0.00493282 0.0911335 -0.042325 0.0149288 0.0820772 
0.0387011 0.0192939 0.0880565 0.0194112 0.0239359 0.0915003 0.0166814 0.0405036 0.0856827 
-0.0102174 0.0466964 0.0933259 0.00693715 0.0481014 0.0897606 0.0137979 -0.0367261 0.0888088 
0.0161728 -0.0333023 0.0955618 -0.00199774 -0.0160259 0.0839432 -0.0274889 0.00803752 0.0951007 
0.0415164 0.014332 0.0960099 -0.0189128 0.0221066 0.0948218 -0.00461067 0.0201597 0.0975288 
0.017494 0.0195812 0.0964105 0.00872745 0.0221765 0.0922447 0.0387439 0.0310087 0.0969721 
0.0336777 0.0318082 0.0936837 0.0225571 0.0363117 0.0843557 -0.0033442 0.0409317 0.0904684 
0.00804548 0.0413046 0.097016 0.00830515 0.0484368 0.0953627 0.0114037 -0.0394429 0.0986844 
-0.0141528 -0.0244662 0.0978684 0.0120073 -0.0233996 0.0944851 -0.0379268 -0.016612 0.0827353 
0.0336244 -0.0185083 0.0955343 0.0376327 -0.017378 0.0991687 -0.0314694 -0.0134405 0.0971453 
-0.00827141 -0.0127553 0.097186 -0.0337087 -0.0108306 0.1001 -0.0276974 -0.00492252 0.0945986 
-0.00552842 0.0269783 0.081388 0.0262197 0.0338431 0.0988573 0.0157836 0.0416358 0.092143 
-0.00676178 -0.041834 0.0993908 -0.000992854 -0.0338985 0.0994804 -0.0242922 -0.0328428 0.100124 
0.0319689 -0.0241855 0.100093 -0.00483634 -0.0174637 0.0898478 0.0274407 -0.0177667 0.0996183 
-0.00554518 -0.000502993 0.0839166 -0.0344612 0.00702938 0.0952363 -0.0134176 0.0265745 0.101223 
0.0300866 0.0304163 0.0995485 0.0317794 -0.0329161 0.105189 0.0127336 -0.0294961 0.0863642 
-0.0429619 -0.0083866 0.0995305 0.0379243 0.00203605 0.0857672 0.0186038 0.0280715 0.0961464 
-0.000396842 0.0376755 0.0928207 -0.0142765 0.0436042 0.0998241 0.0153275 -0.0422684 0.0875104 
-0.0169694 -0.0346002 0.0902326 -0.0485441 0.0015811 0.0907454 0.0350186 0.0220146 0.0873624 
0.0173108 -0.0461946 0.0974753 -0.0294856 -0.0322002 0.106429 -0.0171641 -0.0262288 0.0927282 
-0.00621226 -0.0262392 0.090797 0.0178169 0.0333268 0.0934633 -0.00917302 0.0438988 0.106632 
-0.0440892 0.0117318 0.106918 0.0374607 0.0145023 0.0971518 0.000900857 0.0224649 0.106133 
-0.0478192 0.00671683 0.105277 -0.0273873 0.0137293 0.102203 0.041138 0.0134672 0.106145 
-0.00179404 0.0285702 0.098149 -0.0458831 0.0033425 0.109105 0.0239905 0.0252732 0.102829 
0.00405577 0.0277489 0.102135 0.0146446 -0.0227564 0.112774 -0.0155922 -0.0205517 0.105546 
0.0201345 -0.0400988 0.110216 -0.00915612 -0.00451394 0.109459 -0.00809063 0.0236033 0.112249 
-0.0270014 -0.0371818 0.113583 0.0263512 -0.0286449 0.123528 -0.0265804 -0.0197401 0.127716 
-0.0425889 -0.00664908 0.123341 0.0357889 -0.0195 0.117864 -0.0344664 -0.00949446 0.120899 
-0.0391754 0.00193876 0.130277 0.00849196 -0.0378682 0.132196 -0.00120813 -0.0332152 0.124295 
-0.0337793 0.0179355 0.124929 0.0381509 0.0211975 0.124351 -0.0340186 0.00641248 0.135145 
0.0225462 0.0261161 0.130482 0.000701606 -0.0417813 0.133645 -0.0196445 -0.0364835 0.138023 
0.037505 0.0146222 0.1431 0.0194494 -0.0378177 0.144026 -0.0114176 -0.0376161 0.141838 
-0.0109012 -0.00443881 0.137896 0.0318289 0.0155926 0.136978 0.013724 0.0368398 0.146432 
0.0157845 -0.0366863 0.149856 0.0340005 -0.0274077 0.140902 -0.00389534 0.0123193 0.142305 
-0.00046866 0.00191015 0.142589 0.0127878 -0.0291644 0.146278 -0.0383407 -0.0232859 0.149784 
-0.0150722 0.0359996 0.15264 0.0254207 -0.0360626 0.156128 0.0198366 -0.0307221 0.155436 
0.0335857 0.0231332 0.154795 -0.0122128 0.0410633 0.154905 -0.00585506 0.0443711 0.153936 
-0.0264114 0.0118903 0.159748 0.0364039 0.00934801 0.159284 -0.00668483 0.0382707 0.157823 
-0.0165751 -0.038712 0.161332 -0.0117149 0.000627214 0.164281 0.039135 0.0221487 0.171486 
-0.011216 0.0263764 0.16124 0.00230119 -0.0336949 0.165808 -0.00648554 -0.0313558 0.167989 
-0.00182414 -0.0327508 0.173777 -0.00648953 -0.0220096 0.168202 -0.0149119 -0.00612359 0.175417 
0.020445 -0.0379806 0.178653 0.000838145 0.0199605 0.172016 -0.00917502 0.0417677 0.179706 
0.0137296 0.0452393 0.18093 0.0449151 -0.0138509 0.186609 0.0461079 0.0144018 0.180423 
-0.00446411 0.0246416 0.173007 0.0191889 0.0325979 0.174866 -0.00181526 0.0444847 0.173189 
-0.0357417 -0.021022 0.177843 -0.0249415 -0.017717 0.179492 -0.010498 -0.00824865 0.17723 
-0.00665319 0.00840212 0.178478 0.000509045 0.0395286 0.17738 0.0357618 0.0228648 0.181209 
-0.0190837 -0.0385507 0.184708 0.0341502 -0.0226952 0.194765 -0.0176693 -0.0113834 0.184456 
-0.027432 0.00322227 0.18836 0.0370475 0.0142543 0.201909 0.0426879 0.0134877 0.189593 
-0.0274258 -0.0349825 0.19381 -0.017574 -0.0132037 0.192128 -0.012655 -0.0121901 0.193165 
-0.00154237 -0.00647016 0.193169 0.0134897 -0.00427434 0.208172 -0.0424457 -0.000150892 0.191345 
0.0369949 0.00442086 0.203515 0.0136003 -0.0252707 0.196597 0.0298504 -0.0251655 0.197712 
-0.0294183 -0.0211963 0.196584 -0.0213877 -0.0226463 0.198078 0.0249952 -0.0154888 0.198703 
-0.0116067 0.0342706 0.19746 -0.021474 -0.0368448 0.200495 -0.0194592 0.0233388 0.201421 
-0.000740023 -0.0360659 0.203744 0.000861536 -0.00913537 0.202824 -0.0314586 -0.0131475 0.206491 
0.0207493 0.0245578 0.207073 -0.0120979 -0.0281602 0.213167 0.00275579 -0.0260837 0.210201 
0.0402762 -0.0163751 0.210008 0.0143124 -0.0130284 0.211262 0.0425117 -0.0144958 0.213293 
-0.0428708 -0.011805 0.211144 0.0246282 0.0162154 0.211523 -0.0104751 0.0201344 0.210569 
-0.00997197 0.0302713 0.212012 -0.0123717 -0.0198646 0.213782 -0.0262528 0.0167369 0.214988 
0.0141318 -0.0363161 0.220024 -0.0324409 -0.00912026 0.220269 0.0413691 -0.00199891 0.221013 
-0.0193866 -0.0345939 0.22263 0.0114178 -0.033482 0.22178 -0.0325525 -0.0276598 0.22472 
-0.0104894 0.0181699 0.22405 -0.0332879 -0.0233031 0.226268 0.0131963 0.0147036 0.225602 
0.0165558 0.0211279 0.228417 0.00543924 -0.0314838 0.229244 0.0327504 0.00114017 0.231582 
-0.0246293 0.0182181 0.231773 -0.026454 -0.0245447 0.233724 0.0115408 0.00544019 0.233971 
0.0106892 0.0159746 0.23551 -0.0271281 0.000814539 0.237486 0.0248908 0.00240314 0.236823 
0.0422706 0.00333544 0.237959 -0.0185276 0.00882339 0.237241 0.000721647 0.0249688 0.23965 
-0.0184277 0.0295787 0.239447 0.00761906 -0.0184204 0.242358 0.0274742 -0.00162992 0.243033 
-0.0138045 0.027268 0.243256 -0.0182303 -0.0172101 0.247486 -0.0365539 -0.00567484 0.245533 
0.00245286 -0.00835986 0.247056 -0.0341341 0.0119744 0.246446 0.0247417 0.0153298 0.24699 
0.00888258 0.0172116 0.244346 0.0123061 0.0292579 0.247284 0.0170816 0.0409748 0.245368 
0.012656 -0.0227418 0.248282 0.0362853 -0.000801686 0.251051 -0.0239118 0.0115143 0.250805 
-0.0289214 -0.0224315 0.252176 
VERTICES 331 662
1 0 
1 1 
1 2 
1 3 
1 4 
1 5 
1 6 
1 7 
1 8 
1 9 
1 10 
1 11 
1 12 
1 13 
1 14 
1 15 
1 16 
1 17 
1 18 
1 19 
1 20 
1 21 
1 22 
1 23 
1 24 
1 25 
1 26 
1 27 
1 28 
1 29 
1 30 
1 31 
1 32 
1 33 
1 34 
1 35 
1 36 
1 37 
1 38 
1 39 
1 40 
1 41 
1 42 
1 43 
1 44 
1 45 
1 46 
1 47 
1 48 
1 49 
1 50 
1 51 
1 52 
1 53 
1 54 
1 55 
1 56 
1 57 
1 58 
1 59 
1 60 
1 61 
1 62 
1 63 
1 64 
1 65 
1 66 
1 67 
1 68 
1 69 
1 70 
1 71 
1 72 
1 73 
1 74 
1 75 
1 76 
1 77 
1 78 
1 79 
1 80 
1 81 
1 82 
1 83 
1 84 
1 85 
1 86 
1 87 
1 88 
1 89 
1 90 
1 91 
1 92 
1 93 
1 94 
1 95 
1 96 
1 97 
1 98 
1 99 
1 100 
1 101 
1 102 
1 103 
1 104 
1 105 
1 106 
1 107 
1 108 
1 109 
1 110 
1 111 
1 112 
1 113 
1 114 
1 115 
1 116 
1 117 
1 118 
1 119 
1 120 
1 121 
1 122 
1 123 
1 124 
1 125 
1 126 
1 127 
1 128 
1 129 
1 130 
1 131 
1 132 
1 133 
1 134 
1 135 
1 136 
1 137 
1 138 
1 139 
1 140 
1 141 
1 142 
1 143 
1 144 
1 145 
1 146 
1 147 
1 148 
1 149 
1 150 
1 151 
1 152 
1 153 
1 154 
1 155 
1 156 
1 157 
1 158 
1 159 
1 160 
1 161 
1 162 
1 163 
1 164 
1 165 
1 166 
1 167 
1 168 
1 169 
1 170 
1 171 
1 172 
1 173 
1 174 
1 175 
1 176 
1 177 
1 178 
1 179 
1 180 
1 181 
1 182 
1 183 
1 184 
1 185 
1 186 
1 187 
1 188 
1 189 
1 190 
1 191 
1 192 
1 193 
1 194 
1 195 
1 196 
1 197 
1 198 
1 199 
1 200 
1 201 
1 202 
1 203 
1 204 
1 205 
1 206 
1 207 
1 208 
1 209 
1 210 
1 211 
1 212 
1 213 
1 214 
1 215 
1 216 
1 217 
1 218 
1 219 
1 220 
1 221 
1 222 
1 223 
1 224 
1 225 
1 226 
1 227 
1 228 
1 229 
1 230 
1 231 
1 232 
1 233 
1 234 
1 235 
1 236 
1 237 
1 238 
1 239 
1 240 
1 241 
1 242 
1 243 
1 244 
1 245 
1 246 
1 247 
1 248 
1 249 
1 250 
1 251 
1 252 
1 253 
1 254 
1 255 
1 256 
1 257 
1 258 
1 259 
1 260 
1 261 
1 262 
1 263 
1 264 
1 265 
1 266 
1 267 
1 268 
1 269 
1 270 
1 271 
1 272 
1 273 
1 274 
1 275 
1 276 
1 277 
1 278 
1 279 
1 280 
1 281 
1 282 
1 283 
1 284 
1 285 
1 286 
1 287 
1 288 
1 289 
1 290 
1 291 
1 292 
1 293 
1 294 
1 295 
1 296 
1 297 
1 298 
1 299 
1 300 
1 301 
1 302 
1 303 
1 304 
1 305 
1 306 
1 307 
1 308 
1 309 
1 310 
1 311 
1 312 
1 313 
1 314 
1 315 
1 316 
1 317 
1 318 
1 319 
1 320 
1 321 
1 322 
1 323 
1 324 
1 325 
1 326 
1 327 
1 328 
1 329 
1 330 

POINT_DATA 331
FIELD FieldData 7
id 1 331 int
18 58 24 94 77 59 161 178 134 
62 12 138 45 70 55 35 22 53 
14 179 36 28 1 57 175 82 20 
112 40 107 125 29 17 5 3 23 
85 71 41 8 26 118 181 60 101 
47 127 152 52 16 123 56 19 2 
44 67 90 48 92 164 119 21 173 
93 4 86 38 149 30 72 43 54 
9 122 49 145 154 176 73 42 83 
25 121 37 66 177 135 31 11 171 
166 80 39 191 33 163 15 65 153 
69 144 111 10 148 146 160 61 159 
102 158 150 167 68 34 136 51 46 
110 182 189 32 13 79 143 131 27 
170 81 50 137 64 108 130 120 141 
155 106 186 78 99 104 147 7 87 
6 76 183 74 128 88 84 115 89 
190 142 129 96 100 113 98 193 95 
188 126 117 103 63 184 168 192 91 
97 133 207 199 185 201 187 132 202 
204 198 116 105 205 194 197 139 75 
196 156 200 206 109 195 208 214 212 
211 140 169 218 216 215 209 124 213 
210 219 225 226 220 180 174 157 151 
222 227 114 228 221 224 230 237 233 
235 238 240 234 243 244 236 241 242 
253 247 162 232 252 250 172 249 165 
239 254 217 231 229 255 245 246 251 
259 264 263 257 248 265 262 203 266 
268 256 267 269 260 275 280 258 261 
223 272 279 274 271 277 281 278 270 
273 276 286 282 290 293 289 291 288 
294 284 292 285 287 283 303 304 305 
299 300 297 298 306 302 301 296 312 
295 310 311 307 314 318 315 309 313 
317 316 324 308 331 330 323 322 326 
321 320 328 319 327 325 329 
type 1 331 int
1 1 1 1 1 1 1 1 1 
1 1 1 1 1 1 1 1 1 
1 1 1 1 1 1 1 1 1 
1 1 1 1 1 1 1 1 1 
1 1 1 1 1 1 1 1 1 
1 1 1 1 1 1 1 1 1 
1 1 1 1 1 1 1 1 1 
1 1 1 1 1 1 1 1 1 
1 1 1 1 1 1 1 1 1 
1 1 1 1 1 1 1 1 1 
1 1 1 1 1 1 1 1 1 
1 1 1 1 1 1 1 1 1 
1 1 1 1 1 1 1 1 1 
1 1 1 1 1 1 1 1 1 
1 1 1 1 1 1 1 1 1 
1 1 1 1 1 1 1 1 1 
1 1 1 1 1 1 1 1 1 
1 1 1 1 1 1 1 1 1 
1 1 1 1 1 1 1 1 1 
1 1 1 1 1 1 1 1 1 
1 1 1 1 1 1 1 1 1 
1 1 1 1 1 1 1 1 1 
1 1 1 1 1 1 1 1 1 
1 1 1 1 1 1 1 1 1 
1 1 1 1 1 1 1 1 1 
1 1 1 1 1 1 1 1 1 
1 1 1 1 1 1 1 1 1 
1 1 1 1 1 1 1 1 1 
1 1 1 1 1 1 1 1 1 
1 1 1 1 1 1 1 1 1 
1 1 1 1 1 1 1 1 1 
1 1 1 1 1 1 1 1 1 
1 1 1 1 1 1 1 1 1 
1 1 1 1 1 1 1 1 1 
1 1 1 1 1 1 1 1 1 
1 1 1 1 1 1 1 1 1 
1 1 1 1 1 1 1 
i 3 331 int
0 0 0 0 0 0 0 0 0 
0 0 0 0 0 0 0 0 0 
0 0 0 0 0 0 0 0 0 
0 0 0 0 0 0 0 0 0 
0 0 0 0 0 0 0 0 0 
0 0 0 0 0 0 0 0 0 
0 0 0 0 0 0 0 0 0 
0 0 0 0 0 0 0 0 0 
0 0 0 0 0 0 0 0 0 
0 0 0 0 0 0 0 0 0 
0 0 0 0 0 0 0 0 0 
0 0 0 0 0 0 0 0 0 
0 0 0 0 0 0 0 0 0 
0 0 0 0 0 0 0 0 0 
0 0 0 0 0 0 0 0 0 
0 0 0 0 0 0 0 0 0 
0 0 0 0 0 0 0 0 0 
0 0 0 0 0 0 0 0 0 
0 0 0 0 0 0 0 0 0 
0 0 0 0 0 0 0 0 0 
0 0 0 0 0 0 0 0 0 
0 0 0 0 0 0 0 0 0 
0 0 0 0 0 0 0 0 0 
0 0 0 0 0 0 0 0 0 
0 0 0 0 0 0 0 0 0 
0 0 0 0 0 0 0 0 0 
0 0 0 0 0 0 0 0 0 
0 0 0 0 0 0 0 0 0 
0 0 0 0 0 0 0 0 0 
0 0 0 0 0 0 0 0 0 
0 0 0 0 0 0 0 0 0 
0 0 0 0 0 0 0 0 0 
0 0 0 0 0 0 0 0 0 
0 0 0 0 0 0 0 0 0 
0 0 0 0 0 0 0 0 0 
0 0 0 0 0 0 0 0 0 
0 0 0 0 0 0 0 0 0 
0 0 0 0 0 0 0 0 0 
0 0 0 0 0 0 0 0 0 
0 0 0 0 0 0 0 0 0 
0 0 0 0 0 0 0 0 0 
0 0 0 0 0 0 0 0 0 
0 0 0 0 0 0 0 0 0 
0 0 0 0 0 0 0 0 0 
0 0 0 0 0 0 0 0 0 
0 0 0 0 0 0 0 0 0 
0 0 0 0 0 0 0 0 0 
0 0 0 0 0 0 0 0 0 
0 0 0 0 0 0 0 0 0 
0 0 0 0 0 0 0 0 0 
0 0 0 0 0 0 0 0 0 
0 0 0 0 0 0 0 0 0 
0 0 0 0 0 0 0 0 0 
0 0 0 0 0 0 0 0 0 
0 0 0 0 0 0 0 0 0 
0 0 0 0 0 0 0 0 0 
0 0 0 0 0 0 0 0 0 
0 0 0 0 0 0 0 0 0 
0 0 0 0 0 0 0 0 0 
0 0 0 0 0 0 0 0 0 
0 0 0 0 0 0 0 0 0 
0 0 0 0 0 0 0 0 0 
0 0 0 0 0 0 0 0 0 
0 0 0 0 0 0 0 0 0 
0 0 0 0 0 0 0 0 0 
0 0 0 0 0 0 0 0 0 
0 0 0 0 0 0 0 0 0 
0 0 0 0 0 0 0 0 0 
0 0 0 0 0 0 0 0 0 
0 0 0 0 0 0 0 0 0 
0 0 0 0 0 0 0 0 0 
0 0 0 0 0 0 0 0 0 
0 0 0 0 0 0 0 0 0 
0 0 0 0 0 0 0 0 0 
0 0 0 0 0 0 0 0 0 
0 0 0 0 0 0 0 0 0 
0 0 0 0 0 0 0 0 0 
0 0 0 0 0 0 0 0 0 
0 0 0 0 0 0 0 0 0 
0 0 0 0 0 0 0 0 0 
0 0 0 0 0 0 0 0 0 
0 0 0 0 0 0 0 0 0 
0 0 0 0 0 0 0 0 0 
0 0 0 0 0 0 0 0 0 
0 0 0 0 0 0 0 0 0 
0 0 0 0 0 0 0 0 0 
0 0 0 0 0 0 0 0 0 
0 0 0 0 0 0 0 0 0 
0 0 0 0 0 0 0 0 0 
0 0 0 0 0 0 0 0 0 
0 0 0 0 0 0 0 0 0 
0 0 0 0 0 0 0 0 0 
0 0 0 0 0 0 0 0 0 
0 0 0 0 0 0 0 0 0 
0 0 0 0 0 0 0 0 0 
0 0 0 0 0 0 0 0 0 
0 0 0 0 0 0 0 0 0 
0 0 0 0 0 0 0 0 0 
0 0 0 0 0 0 0 0 0 
0 0 0 0 0 0 0 0 0 
0 0 0 0 0 0 0 0 0 
0 0 0 0 0 0 0 0 0 
0 0 0 0 0 0 0 0 0 
0 0 0 0 0 0 0 0 0 
0 0 0 0 0 0 0 0 0 
0 0 0 0 0 0 0 0 0 
0 0 0 0 0 0 0 0 0 
0 0 0 0 0 0 0 0 0 
0 0 0 0 0 0 0 0 0 
0 0 0 0 0 0 0 0 0 
0 0 0 
v 3 331 double
-0.00331278 0.0251238 7.54904e-05 0.0673792 0.0668914 -0.0924051 -0.404791 0.26559 0.0415212 
0.059637 0.0546348 2.40265e-06 -0.13196 -0.0487485 -0.0124641 -0.0214782 -0.138502 2.30117e-13 
0.304078 -0.247442 0.0793736 0.608461 -0.556127 0.28223 -0.093399 -0.106757 0.0444066 
0.166047 0.000789148 -0.0124945 -7.27211e-05 0.0589079 0.0389467 0.0119416 0.246156 0.0517989 
0.103419 0.115358 -0.036627 -0.141826 -0.0975769 -0.0217951 -0.0346536 -0.199989 0.0513106 
0.239379 0.423607 0.0593232 -0.012775 -0.0111176 3.78674e-09 -0.137919 0.0722556 2.87886e-09 
0.115639 -0.0346894 1.30356e-05 0.159307 0.362248 -0.271879 -0.152166 0.13013 -2.27263e-14 
-0.018289 0.0275148 0.00416567 -0.00596605 -0.150827 2.78951e-06 0.0160977 -0.0813671 -1.32132e-07 
0.402581 -0.267112 0.2666 0.0308077 -0.0913059 -4.65202e-13 -0.10798 -0.0452509 -1.25121e-13 
0.00011726 -0.0222427 0.0927484 0.0297576 0.0183808 8.09773e-06 -0.0180217 -0.0438523 0.00500248 
-0.13787 0.0638209 0.023756 -0.00213382 -0.0661129 -7.82433e-06 -0.103835 0.172056 -0.00469899 
0.0545669 0.006987 -0.0158586 0.00396184 -0.153981 1.65492e-12 0 0 0.106278 
-0.188578 -0.177015 8.28326e-06 -0.0137782 -0.00129348 -0.0446766 -0.138617 0.0237807 0.00145735 
0.165887 -0.0389584 -0.00316408 -0.157745 0.11768 -1.536e-08 -0.075552 -0.0304444 -0.104781 
0 0 0.507131 0.130454 -0.0887578 -0.0638837 -0.0910303 -0.0847139 0.0718282 
-0.0074048 0.0137596 -0.000824628 -0.0120136 -0.0667499 0.00533221 -0.090669 0.0804968 -0.00482146 
0.0262646 0.0278168 0.000299554 0.106349 -0.0357021 -0.0187661 0.00332442 -0.0915856 0.0208386 
-0.000872249 -0.0201118 -0.00084203 0 0 0.141749 -0.068869 -0.0555968 -0.0182037 
0.230451 0.00510078 -0.229396 -0.184591 0.0211312 0.194278 0.189573 0.191095 -0.332957 
0.0474193 -0.0085701 -0.047484 0.234955 -0.030392 -0.218626 -0.185543 -0.117756 0.158323 
-0.145585 -0.00396356 -0.133367 -0.0917743 0.278458 -0.18208 -0.97326 -0.0575398 -1.51617 
0.202658 0.187276 0.190624 -0.0250187 0.0326398 -0.0838012 -0.138396 0.106079 0.268439 
0.145226 -0.196006 0.127433 -0.162551 0.148792 0.105032 0.0180729 0.0565678 -0.00206755 
0.352407 -0.0721969 0.0484012 -0.151725 -0.129412 0.121458 0.00526303 -0.0703461 -0.0756794 
-0.076391 0.248362 -0.280683 0.215899 -0.105222 -0.217704 0.124031 -0.187364 -0.153811 
-0.199062 0.208824 -0.0131023 -0.213875 -0.574256 -0.209818 -0.334033 -0.289921 0.212219 
-0.269885 0.0171834 0.250585 -0.0731136 -0.0821396 0.0917736 -0.179511 -0.203417 0.0515757 
-0.108121 -0.142468 -0.41178 -0.15488 0.274979 -0.0773821 -0.0945652 -0.0123925 0.0720451 
-0.0296962 -0.205676 0.183281 0.105984 -0.176042 0.346582 0.221622 0.0360961 -0.0336999 
-0.00486116 0.0506451 -0.0902171 -0.0290348 0.0341657 -0.318555 0 0 0.545656 
0 0 0.429693 -0.0506846 0.166657 -0.227626 0 0 -0.57132 
0.402801 -0.36846 0.418751 -0.144728 0.0491779 0.333932 0 0 0.368473 
0.20184 -0.0897827 0.0349761 0.0146664 -0.246515 -0.428763 -0.0510707 -0.292749 0.141682 
-0.170555 -0.0422349 0.110521 0.0597983 0.617555 -0.721831 -0.174932 -0.222418 -0.241127 
-0.0706073 -0.0130877 0.147998 0.139395 0.440889 0.117081 -0.244623 -0.106963 0.187118 
0 0 0.390284 -0.0644851 -0.0888247 0.0946087 -0.144014 0.115643 0.320418 
-0.500946 -0.237575 0.184416 0 0 0.390413 -0.228593 -0.00797132 -0.0907985 
0.334312 0.298226 -0.19347 -0.197067 -0.0839793 -0.21156 -0.21416 -0.449296 0.359929 
-0.363705 0.348917 -0.0366331 -0.100178 0.0778283 -0.315666 0 0 -0.49697 
-0.0202158 0.0904819 -0.333684 0.287057 -0.473406 0.259997 -0.0399817 0.346199 0.444075 
0.258176 0.0676147 -0.0652858 -0.0497659 0.0488521 0.00129568 0.224822 0.127928 0.351394 
-0.0235399 -0.0959699 -0.1919 -0.000207281 -0.408841 -0.653873 0 0 -0.557026 
-0.0668899 -0.193247 0.100488 0.105998 0.0263797 -0.288529 -0.00242069 -0.067788 -0.489284 
-0.188623 0.0131908 0.20382 0.15444 0.0782284 -1.4516 0.227779 0.292222 0.113972 
0.00836415 -0.0207253 0.181286 -0.206555 0.0460899 -0.117132 0 0 0.229497 
0 0 0.272584 0.0443562 -0.175106 -0.201273 -0.351739 0.258895 0.236442 
0.0370144 -0.161992 -0.138986 0.0859585 -0.126474 -0.943516 0.307209 -0.303349 -0.578686 
-0.265041 -0.233857 0.210462 -0.067 -0.0920303 -0.0505531 0 0 -0.172145 
-0.234258 0.0927048 0.0736229 0 0 -0.33721 0 0 0.606544 
0 0 -0.304163 0 0 0.144978 0 0 -0.245126 
0 0 -0.246172 0 0 0.0446899 -0.0466183 0.113419 -0.254221 
0 0 0.607705 0 0 0.162904 -0.267289 0.10886 -0.664984 
0 0 -0.12613 0 0 -0.118801 0 0 -0.0384521 
0 0 -0.0516965 -0.15444 -0.0782284 -1.03502 0 0 -0.106661 
0.278641 0.286096 -1.32947 0.242856 0.0398524 -0.812093 0 0 0.0727052 
0 0 -0.118597 0.0654727 0.256069 0.0150412 0.210224 0.0124286 -1.63335 
0.207333 -0.00506136 -0.693489 -0.361294 -0.413508 -1.34008 -0.224841 0.220806 -0.553918 
-0.233988 -0.0877342 -1.30542 0.24369 -0.0897005 -0.588405 0 0 -2.05315 
0 0 -2.04011 0.0552791 -0.345623 -0.91963 0 0 -2.05384 
-0.158296 -0.0194763 -1.65296 0.251011 -0.0333355 -0.618081 0 0 -2.02804 
0 0 -2.03736 0 0 -2.02451 0.262337 -0.0938283 -0.587312 
-0.155227 0.179103 -0.993759 0 0 -2.00656 0.480857 0.462204 -1.06313 
0.131797 -0.0968317 -1.18719 0.197847 0.203637 -1.66861 -0.0884116 0.010815 -1.28439 
0 0 -2.00165 -0.46521 0.018778 -1.25351 0 0 -1.9786 
0 0 -1.98203 -0.159078 0.255691 -1.419 0 0 -1.96506 
0 0 -1.94161 0 0 -1.94544 0 0 -1.93131 
-0.137216 -0.0662139 -1.90038 -0.210456 -0.0376268 -1.11692 -0.0584524 -0.340155 -0.544673 
-0.65424 -0.218265 -0.954286 0 0 -1.90257 0 0 -1.88687 
-0.650204 0.0472716 -0.911059 -0.231475 0.0611288 -1.04368 0 0 -1.86912 
0 0 -1.86578 0 0 -1.86882 -0.745414 0.463954 -0.617542 
0 0 -1.83635 0 0 -1.81938 -0.374143 -0.356237 -1.20591 
-0.191606 0.0306842 -0.931319 -0.156742 0.00301444 -1.0638 0.154288 -0.111742 -1.20162 
0 0 -1.79633 0 0 -1.80133 -0.228466 -0.0203282 -0.985627 
-0.403007 0.0837606 -0.855804 0 0 -1.77985 0 0 -1.7721 
0 0 -1.77053 0 0 -1.74993 0 0 -1.73021 
0 0 -1.71392 0 0 -1.69381 0 0 -1.69783 
-0.0451526 0.00674414 -1.66662 0 0 -1.70088 0 0 -1.70647 
0 0 -1.67272 0 0 -1.67547 0 0 -1.684 
0 0 -1.6634 0 0 -1.64594 0.0304269 -0.0274043 -0.8664 
0 0 -1.66399 0 0 -1.63682 0 0 -1.62367 
-0.196465 -0.321643 -0.813091 0 0 -1.6224 -0.317545 -0.0640633 -0.800592 
0.00460322 -0.678804 -0.811447 0 0 -1.59915 -0.388205 0.555999 -0.702142 
-0.0972885 0.694467 -0.698904 -0.221256 -0.0350705 -0.345789 0.510911 0.255283 -0.884499 
0 0 -1.59306 0 0 -1.58159 0 0 -1.59198 
0 0 -1.56304 0 0 -1.55265 0 0 -1.56687 
0 0 -1.55902 0 0 -1.56589 0 0 -1.54176 
0 0 -1.51929 0.162106 -0.280841 -0.51413 0 0 -1.52096 
0 0 -1.49555 0.427123 0.328896 -0.268585 0 0 -1.48741 
0 0 -1.45935 0 0 -1.47063 0 0 -1.46367 
0 0 -1.46367 -0.164424 -0.169497 -0.0855831 0 0 -1.47583 
0.307594 0.0622247 -0.317763 0 0 -1.44052 0 0 -1.43287 
0 0 -1.44062 0 0 -1.43041 0.185263 -0.527043 -0.661231 
0 0 -1.43463 0 0 -1.41374 0 0 -1.40726 
0 0 -1.39098 0 0 -1.39745 0 0 -1.37146 
0 0 -1.36734 0 0 -1.3229 0 0 -1.34467 
0 0 -1.34605 0 0 -1.33692 0 0 -1.32192 
0 0 -1.33781 0 0 -1.33496 0 0 -1.34203 
0 0 -1.33143 0 0 -1.31829 0 0 -1.30926 
0 0 -1.271 0 0 -1.26914 0 0 -1.26335 
0 0 -1.25069 0 0 -1.25737 0 0 -1.23421 
0 0 -1.23951 0 0 -1.22185 0 0 -1.22715 
0 0 -1.20449 0 0 -1.19772 0 0 -1.17839 
0 0 -1.17683 0 0 -1.16044 0 0 -1.15838 
0 0 -1.14524 0 0 -1.12817 0 0 -1.13396 
0 0 -1.12405 0 0 -1.13033 0 0 -1.10923 
0 0 -1.111 0 0 -1.085 0 0 -1.07892 
0 0 -1.07686 0 0 -1.03762 0 0 -1.05587 
0 0 -1.04164 0 0 -1.04743 0 0 -1.04233 
0 0 -1.06686 0 0 -1.03949 0 0 -1.05744 
0 0 -1.03007 0 0 -1.00338 0 0 -1.00574 
0 -0 -1 
f 3 331 double
-1.12177e-09 8.46587e-09 3.68619e-05 0 0 -0.000346714 0 0 -0.000346714 
-5.75243e-09 -4.08133e-09 -2.40276e-07 0 0 -0.000346714 3.07143e-18 2.856e-17 0 
0 0 -0.000346714 0 0 -0.000346714 0 0 -0.00160516 
0 0 -0.000346714 0 0 -0.000346714 0 0 -0.000346714 
0 0 -0.000346714 0 0 -0.000346714 0 0 -0.00160516 
0 0 -0.000346714 -2.61112e-13 -2.27237e-13 -1.17576e-10 -5.89687e-12 3.08937e-12 -9.86615e-11 
2.07481e-08 -6.22401e-09 4.47499e-06 -0.113063 -0.0319673 -0.0207702 -2.69423e-17 2.85456e-17 0 
0 0 -0.00160516 -2.1991e-10 -5.56145e-09 1.45493e-06 -1.06513e-11 5.38376e-11 -1.35312e-08 
0 0 -0.000346714 6.94354e-18 -1.34712e-17 -5.42101e-20 -2.9242e-17 -3.03642e-18 2.71912e-15 
0 0 -0.000346714 -0.000414933 -0.000615915 -4.03673e-06 -0.0002346 -0.000181106 -0.00133742 
-9.81322e-05 -0.000325156 -0.00156726 3.20984e-10 9.94368e-09 1.18517e-05 0 0 -0.00160516 
0 0 -0.00160516 1.06431e-16 -4.14521e-15 -1.01357e-12 0 0 -0.000346714 
-8.06072e-09 -7.56649e-09 4.28937e-07 0 0 -0.000346714 0.000201146 0.000698402 -0.000151575 
-3.54422e-06 9.27519e-07 0.000446445 1.43089e-11 -1.06746e-11 3.14634e-09 0.0265179 0.00399321 -0.0222093 
0 0 -0.000346714 0 0 -0.000346714 0 0 -0.000346714 
0 0 -0.000346714 0.00287923 0.0054661 0.0120094 0 0 -0.000346714 
-5.01274e-08 -3.62056e-08 0.00113881 0 0 -0.00160516 0 0 -0.000346714 
6.91468e-07 -1.38025e-06 0.000681561 0 0 -0.000346714 0 0 -0.00160516 
0 0 -0.000346714 0 0 -0.00160516 0 0 -0.000346714 
0 0 -0.000346714 -0.00015384 1.63639e-05 0.0180406 0.0073079 -0.00133668 -0.00259696 
-0.0073079 0.00133668 0.000645091 0 0 -0.000346714 0 0 -0.000346714 
0 0 -0.00160516 0 0 -0.00160516 0.00987364 -0.0196943 0.00884849 
0 0 -0.000346714 0 0 -0.000346714 0 0 -0.00160516 
0 0 -0.000346714 -0.00987364 0.0196943 -0.0108004 0 0 -0.00160516 
0 0 -0.000346714 0 0 -0.000346714 0 0 -0.000346714 
0.113063 0.0319673 0.0188183 0 0 -0.000346714 0 0 -0.000346714 
0 0 -0.000346714 0 0 -0.00160516 0 0 -0.000346714 
0 0 -0.000346714 0 0 -0.00160516 0 0 -0.000346714 
0 0 -0.00160516 0 0 -0.000346714 0 0 -0.000346714 
0 0 -0.00160516 0 0 -0.000346714 0 0 -0.00160516 
0 0 -0.000346714 0 0 -0.00160516 0 0 -0.000346714 
0 0 -0.000346714 0 0 -0.000346714 0 0 -0.000346714 
0 0 -0.00160516 0 0 -0.00160516 0 0 -0.000346714 
0 0 -0.000346714 0 0 -0.00160516 0 0 -0.000346714 
0 0 -0.000346714 0 0 -0.000346714 0 0 -0.00160516 
0 0 -0.00160516 0 0 -0.000346714 0 0 -0.00160516 
0 0 -0.000346714 0 0 -0.00160516 0 0 -0.000346714 
0 0 -0.000346714 -0.0438197 0.00173013 0.0760217 0 0 -0.000346714 
0.0227733 -0.0322523 0.03967 0 0 -0.000346714 0 0 -0.000346714 
0 0 -0.000346714 0 0 -0.00160516 0 0 -0.000346714 
0 0 -0.000346714 0 0 -0.000346714 -0.00136091 0.00253283 -0.0740801 
0 0 -0.00160516 0 0 -0.00160516 0 0 -0.00160516 
0 0 -0.00160516 0 0 -0.00160516 0 0 -0.000346714 
0 0 -0.000346714 0 0 -0.000346714 0 0 -0.000346714 
0 0 -0.00160516 0 0 -0.00160516 0 0 -0.000346714 
0 0 -0.000346714 0 0 -0.00160516 0 0 -0.000346714 
0 0 -0.00160516 0 0 -0.000346714 0 0 -0.00160516 
0 0 -0.00160516 0 0 -0.000346714 0 0 -0.000346714 
0 0 -0.000346714 0 0 -0.000346714 0 0 -0.00160516 
0 0 -0.000346714 0 0 -0.000346714 0 0 -0.000346714 
0 0 -0.000346714 0 0 -0.000346714 0 0 -0.000346714 
0 0 -0.000346714 0 0 -0.000346714 0 0 -0.000346714 
0 0 -0.000346714 0 0 -0.000346714 0 0 -0.000346714 
0 0 -0.000346714 0 0 -0.000346714 0 0 -0.000346714 
0 0 -0.000346714 0 0 -0.000346714 0 0 -0.00160516 
0 0 -0.000346714 0 0 -0.000346714 0 0 -0.00160516 
0 0 -0.000346714 0 0 -0.000346714 0 0 -0.00160516 
0 0 -0.000346714 0 0 -0.00160516 0 0 -0.000346714 
0 0 -0.000346714 0 0 -0.00160516 0 0 -0.000346714 
0 0 -0.000346714 0 0 -0.00160516 0 0 -0.000346714 
0 0 -0.000346714 0 0 -0.00160516 0 0 -0.000346714 
0 0 -0.00160516 0 0 -0.000346714 0 0 -0.000346714 
0 0 -0.00160516 0 0 -0.000346714 0 0 -0.000346714 
0 0 -0.00160516 0 0 -0.00160516 0 0 -0.000346714 
0 0 -0.000346714 0 0 -0.000346714 0 0 -0.00160516 
0 0 -0.00160516 0 0 -0.000346714 0 0 -0.000346714 
0 0 -0.00160516 0 0 -0.000346714 0 0 -0.00160516 
0 0 -0.000346714 0 0 -0.000346714 0 0 -0.000346714 
0 0 -0.00160516 0 0 -0.000346714 0 0 -0.000346714 
0 0 -0.00160516 0 0 -0.000346714 0 0 -0.000346714 
0 0 -0.000346714 0 0 -0.00160516 0 0 -0.000346714 
0 0 -0.000346714 0 0 -0.00160516 0 0 -0.000346714 
0 0 -0.00160516 0 0 -0.000346714 0 0 -0.000346714 
0 0 -0.000346714 0 0 -0.00160516 0 0 -0.000346714 
0 0 -0.000346714 0 0 -0.000346714 0 0 -0.00160516 
0 0 -0.00160516 0 0 -0.000346714 0 0 -0.000346714 
0 0 -0.00160516 0 0 -0.000346714 0 0 -0.000346714 
0 0 -0.00160516 0 0 -0.000346714 0 0 -0.000346714 
0 0 -0.000346714 0 0 -0.00160516 0 0 -0.000346714 
0 0 -0.00160516 0 0 -0.000346714 0 0 -0.000346714 
0 0 -0.00160516 0 0 -0.000346714 0 0 -0.000346714 
0 0 -0.000346714 0 0 -0.000346714 0 0 -0.000346714 
0 0 -0.000346714 0 0 -0.000346714 0 0 -0.000346714 
0 0 -0.00160516 0 0 -0.00160516 0 0 -0.000346714 
0 0 -0.00160516 0 0 -0.000346714 0 0 -0.000346714 
0 0 -0.00160516 0 0 -0.00160516 0 0 -0.000346714 
0 0 -0.000346714 0 0 -0.000346714 0 0 -0.000346714 
0 0 -0.000346714 0 0 -0.000346714 0 0 -0.000346714 
0 0 -0.00160516 0 0 -0.00160516 0 0 -0.000346714 
0 0 -0.000346714 0 0 -0.00160516 0 0 -0.000346714 
0 0 -0.00160516 0 0 -0.00160516 0 0 -0.000346714 
0 0 -0.000346714 0 0 -0.00160516 0 0 -0.000346714 
0 0 -0.000346714 0 0 -0.000346714 0 0 -0.00160516 
0 0 -0.000346714 0 0 -0.000346714 0 0 -0.000346714 
0 0 -0.00160516 0 0 -0.000346714 0 0 -0.000346714 
0 0 -0.000346714 0 0 -0.000346714 0 0 -0.000346714 
0 0 -0.000346714 0 0 -0.00160516 0 0 -0.000346714 
0 0 -0.00160516 0 0 -0.000346714 0 0 -0.00160516 
0 0 -0.000346714 0 0 -0.000346714 0 0 -0.000346714 
0 0 -0.000346714 0 0 -0.000346714 0 0 -0.00160516 