# vtk DataFile Version 4.0
Generated by LIGGGHTS
ASCII
DATASET POLYDATA
POINTS 639 float
-0.0123336 -0.0476963 0.0811205 -0.00916694 -0.0487453 0.0811205 -0.00358044 -0.049452 0.0811195 
0.000320814 -0.0479475 0.0811205 0.00435435 -0.0485181 0.0821225 0.00958242 -0.0484619 0.0811205 
0.0130551 -0.0477851 0.0811205 -0.0203236 -0.0453388 0.0811205 -0.0147049 -0.0458193 0.0811205 
-0.0110108 -0.0445836 0.0811203 -0.0054216 -0.0470592 0.0811176 -0.00793089 -0.04521 0.0816262 
-0.00301295 -0.0452082 0.0811205 -6.5307e-05 -0.0444681 0.0815382 0.00897767 -0.0443987 0.0810958 
0.0121284 -0.0445382 0.0811205 0.0158869 -0.0466367 0.0811206 0.0202654 -0.0451762 0.0811205 
-0.0256015 -0.040891 0.0821183 -0.0226237 -0.0433984 0.0811205 -0.0166978 -0.0435106 0.0811228 
-0.0138697 -0.040826 0.0824873 -0.00447468 -0.0422293 0.0811205 -0.000489842 -0.0410688 0.0811205 
0.0154029 -0.0421555 0.0821163 -0.0306869 -0.0376499 0.0826319 -0.0188162 -0.0400637 0.0821183 
-0.0147901 -0.0367284 0.0811205 -0.00844612 -0.0381456 0.0811205 -0.00300373 -0.0379921 0.0821181 
0.00173482 -0.0385931 0.0811439 0.00994287 -0.0393283 0.0821183 0.0162986 -0.0372205 0.0825023 
0.0255754 -0.039254 0.081122 0.0319412 -0.0379358 0.0811208 -0.0336112 -0.0336186 0.0821797 
-0.0274974 -0.0347721 0.0811205 -0.0208775 -0.0344165 0.0821183 -0.00591209 -0.0338845 0.0821181 
0.00399576 -0.0335994 0.0827171 0.00972206 -0.0353932 0.0811205 0.0173093 -0.0333331 0.0813387 
0.0226906 -0.0351029 0.0821186 0.030891 -0.0342006 0.0821189 -0.0373646 -0.0325809 0.0811206 
-0.039362 -0.0303081 0.0812679 -0.0289264 -0.0318379 0.081295 -0.0182848 -0.0313272 0.0811205 
-0.00998122 -0.030463 0.0821169 0.0139878 -0.0318492 0.0811205 0.0363257 -0.0325345 0.0811205 
0.0388771 -0.0308253 0.0811205 -0.0410472 -0.0277555 0.0813392 -0.0375444 -0.0270212 0.0811658 
-0.0361839 -0.0297271 0.0811281 -0.0331733 -0.0296686 0.0817383 -0.0303266 -0.0287736 0.0811219 
-0.0272898 -0.0292908 0.0811205 -0.0212263 -0.0279979 0.0821183 -0.00011613 -0.0307015 0.0823437 
0.00921523 -0.0323345 0.0814127 0.0176687 -0.0298608 0.0813255 0.0287127 -0.0292712 0.0821183 
0.0396901 -0.0267232 0.0810301 -0.0434276 -0.0242362 0.0811131 -0.0401145 -0.0248544 0.0822434 
-0.0279435 -0.0254532 0.0821182 -0.0186581 -0.0247646 0.0811205 -0.0152149 -0.0259281 0.0811205 
-0.00927942 -0.0239775 0.0811205 -0.00551226 -0.023287 0.0824979 0.0167428 -0.0255818 0.0811202 
0.0426267 -0.025385 0.0811205 -0.0438517 -0.0204075 0.0821156 -0.0306572 -0.0195526 0.0811206 
-0.0261508 -0.0196146 0.0821183 -0.0227433 -0.0227906 0.0811198 -0.0214608 -0.0200788 0.0811207 
-0.016957 -0.0206239 0.0821183 -0.00757674 -0.0180921 0.0812207 0.00369406 -0.0216997 0.0822026 
0.0137859 -0.0233709 0.0816837 0.0242965 -0.0200855 0.0826396 0.0374815 -0.0202143 0.0811205 
0.0439316 -0.0226738 0.0811196 -0.0462442 -0.016668 0.0811205 -0.0345431 -0.0186618 0.0811205 
-0.0306445 -0.0159816 0.0811418 -0.0219881 -0.0171258 0.0811078 -0.0184909 -0.015886 0.0814054 
0.00251987 -0.0177345 0.0811205 0.00730584 -0.0181645 0.0821187 0.0238509 -0.0172977 0.0811205 
0.0449295 -0.0185958 0.0821417 -0.0476713 -0.0136329 0.081128 -0.0447282 -0.012568 0.0811205 
-0.0250213 -0.0156017 0.0811205 -0.0178037 -0.0121842 0.0811205 -0.0153632 -0.015087 0.0811205 
-0.00673485 -0.0127439 0.0821182 0.0340149 -0.013023 0.0821271 0.0426507 -0.0154693 0.0811205 
0.0414695 -0.0125944 0.0811207 0.0476231 -0.0134512 0.0811205 0.0444396 -0.0130113 0.0811205 
-0.0474981 -0.00967131 0.0821183 -0.0344777 -0.0109505 0.0811205 -0.0306637 -0.0116839 0.0821182 
-0.0253545 -0.0119487 0.0811215 -0.0220326 -0.00995209 0.0821213 -0.0173463 -0.00880095 0.0811194 
-0.0137087 -0.00913533 0.0811206 -0.0115628 -0.0112782 0.0811205 -0.00800059 -0.00880691 0.0811205 
-0.00378559 -0.00845904 0.0824298 0.0194857 -0.010001 0.0812619 0.0296327 -0.0103639 0.0811205 
0.0385021 -0.0121211 0.0811502 0.0418469 -0.00923141 0.0811205 -0.0428171 -0.00777412 0.0835675 
-0.037517 -0.00849871 0.0821183 -0.0291742 -0.00806966 0.0811205 -0.0222461 -0.00597601 0.0811205 
-0.0192927 -0.00538771 0.08112 -0.0141063 -0.00615036 0.0811201 -0.0112448 -0.00741501 0.0811204 
-0.00883604 -0.00550855 0.0811205 0.000675725 -0.0079035 0.0811205 0.00543676 -0.00945105 0.0821204 
0.0114186 -0.00626118 0.0811205 0.0215033 -0.00771826 0.0811206 0.0254868 -0.00604521 0.0821181 
0.029377 -0.00589196 0.0811205 0.0345963 -0.00798296 0.0821187 0.0385127 -0.00822119 0.0812305 
0.0488174 -0.00808624 0.0811201 -0.0485581 -0.00211474 0.0821183 -0.0440527 -0.00393125 0.0811205 
-0.0346858 -0.00526145 0.0811205 -0.0218051 -0.00300286 0.0811206 -0.0170151 -0.00151261 0.0821183 
-0.0134905 -0.00319358 0.0811197 -0.0057056 -0.00504547 0.0811199 -0.00231718 -0.00448445 0.0811205 
-0.00484999 -0.00218134 0.0811512 0.00643507 -0.00522902 0.0811205 0.00975247 -0.00357338 0.0811205 
0.0153001 -0.00231803 0.0811205 0.0322249 -0.00491455 0.0811205 0.0389345 -0.00424617 0.082119 
0.0434802 -0.00345321 0.0811205 0.0472922 -0.00545187 0.0811205 0.0495735 -0.00281292 0.0811205 
-0.0444587 0.000800476 0.0821183 -0.0354247 -0.000883263 0.0821181 -0.031344 -0.00052968 0.0814552 
-0.0275228 0.00164216 0.0811379 -0.0236681 -0.000597779 0.0811206 -0.0187069 0.00202131 0.0811205 
-0.0111825 -0.00117092 0.0811205 -0.00356717 0.00153635 0.0821834 0.0129815 -0.000180065 0.0811205 
0.020225 0.00102946 0.0811205 0.026348 0.00169593 0.0811205 0.029859 -0.00127474 0.0821183 
0.0343708 -0.000717525 0.0811205 0.046262 -0.000675502 0.0821183 -0.0486365 0.00399236 0.0811204 
-0.0390174 0.00113529 0.0830854 -0.0336491 0.00315284 0.0811205 -0.0300439 0.00396747 0.0811207 
-0.0129278 0.00346293 0.0821183 0.0150976 0.00227917 0.0811205 0.0191441 0.00390805 0.0811202 
0.0227009 0.00351532 0.0811205 0.0257798 0.00474667 0.0811205 0.0369165 0.00394432 0.0811421 
-0.0480057 0.00781836 0.0821187 -0.042491 0.00541368 0.0821179 -0.0377283 0.00893176 0.0822747 
-0.0322266 0.0060332 0.0811202 -0.0277971 0.00668677 0.0811205 0.00650185 0.00632532 0.0821171 
0.0112385 0.0043992 0.0821142 0.0168114 0.00581997 0.0811281 0.0342708 0.00802952 0.0811205 
-0.0424859 0.00927869 0.0811208 -0.0367622 0.011653 0.0810991 0.0106057 0.00932742 0.0826406 
0.0191111 0.00862335 0.0811205 0.0232375 0.00976202 0.0811205 0.0303574 0.0105623 0.081243 
-0.0450289 0.0121903 0.0821152 -0.0389802 0.0148553 0.0821181 -0.0189923 0.0142053 0.0826364 
-0.0147678 0.0138123 0.0811208 -0.0111813 0.0152335 0.0821175 0.00526976 0.0156728 0.0811203 
0.013296 0.013384 0.0811566 0.0171077 0.012411 0.0821387 0.0216552 0.0155076 0.0811205 
0.026081 0.0118423 0.0811205 0.0327933 0.0155713 0.0811205 -0.0408596 0.0184513 0.0811211 
-0.0339269 0.0149943 0.0821196 -0.030358 0.0173387 0.081124 -0.00543701 0.0199278 0.082656 
0.00592599 0.020314 0.0810788 0.00813606 0.0145686 0.0811864 0.0262802 0.0162687 0.0820813 
0.0305879 0.0194086 0.0821183 0.0394926 0.0192288 0.0822671 0.0435676 0.0163315 0.0823006 
-0.0432402 0.0214969 0.0821408 -0.037158 0.0195363 0.0821821 -0.0278859 0.0205254 0.0822119 
-0.016735 0.0229376 0.0811205 -0.0116634 0.0191127 0.0811206 0.0202531 0.0191695 0.0811143 
0.02596 0.0223145 0.0821182 0.0435218 0.0207925 0.0811282 -0.0394771 0.0234582 0.0811205 
-0.0363423 0.025908 0.0811208 -0.0344332 0.0233972 0.0813916 -0.031072 0.0227425 0.0811205 
-0.0329444 0.0260046 0.0811851 -0.0254039 0.0248598 0.0824758 -0.0186517 0.0256408 0.0811205 
-0.0121339 0.0229696 0.0821184 0.0104305 0.0239784 0.0838041 0.0295279 0.0239505 0.0811205 
0.0325371 0.0234959 0.081118 0.0353324 0.0248394 0.0811204 0.0412025 0.0246059 0.0822711 
-0.0402014 0.0273561 0.0821183 -0.0282441 0.0282891 0.0811205 -0.0127877 0.0275679 0.0811205 
-0.00762553 0.0259025 0.0811293 0.000361074 0.0294073 0.0811203 0.00920213 0.0308978 0.0814452 
0.0264861 0.0270479 0.0811205 0.0310619 0.0275487 0.0821179 0.0349338 0.0278121 0.0811206 
0.0406566 0.028482 0.081154 -0.038192 0.0306732 0.0811179 -0.0351317 0.0322403 0.0811203 
-0.0318633 0.0297705 0.0821181 -0.0251641 0.0315701 0.0811205 -0.0169855 0.0296075 0.0811205 
-0.0108044 0.030206 0.0811205 -0.00607241 0.0299233 0.0811205 0.00428137 0.0312613 0.0811207 
0.0151192 0.0308383 0.0811207 0.0275151 0.0298928 0.0811185 0.0301606 0.0321782 0.081135 
0.0334491 0.0325232 0.0811197 0.03749 0.0307417 0.0821182 -0.0331381 0.0355624 0.0821161 
-0.0283784 0.0339868 0.0821185 -0.0246643 0.0353922 0.0811205 -0.0215369 0.0347691 0.0814897 
-0.0163021 0.0334054 0.0811218 0.0179237 0.0351389 0.0811205 0.0233274 0.0364276 0.0835994 
0.0261421 0.0334457 0.0823284 0.028803 0.0361873 0.0811203 0.0358403 0.0343306 0.0811223 
0.0337452 0.0364899 0.0811198 -0.0288913 0.038999 0.0821183 -0.0230892 0.0382256 0.0811205 
-0.0124517 0.0373405 0.081802 0.00661932 0.0395982 0.0821174 0.0116079 0.0376255 0.0811205 
0.0176213 0.0399281 0.0821184 0.0251643 0.0371497 0.0811788 0.0278878 0.0399545 0.082136 
0.0313928 0.0383391 0.0811174 -0.0247602 0.0419183 0.0821183 -0.0188959 0.0409231 0.0821182 
-0.0150897 0.0416343 0.0811205 -0.0121779 0.0407471 0.0811734 -0.00825828 0.0408196 0.0822029 
0.00158637 0.0398412 0.0821183 0.0100821 0.0436019 0.0821182 0.0229236 0.0405087 0.0821198 
-0.0176234 0.0459006 0.0811205 -0.0148175 0.0472063 0.0811205 -0.0116394 0.0446461 0.0822088 
-0.00465067 0.0442893 0.0821179 -0.00107717 0.045812 0.0811189 0.00371979 0.0460595 0.0819487 
0.00687868 0.0460008 0.0811205 0.0141919 0.0464646 0.0821153 0.019799 0.0444171 0.0821183 
-0.0073992 0.0491174 0.0811205 -0.00439747 0.0490447 0.0811204 -0.00125409 0.0489392 0.0811272 
0.00473214 0.0487524 0.0811162 0.00771554 0.0490161 0.0811063 0.0105301 0.0478891 0.0811199 
-0.00708863 -0.0481701 0.0845746 -0.00124881 -0.0496924 0.0829886 0.00980637 -0.0455813 0.0847954 
-0.0073616 -0.0411761 0.0844296 -0.00253038 -0.0413721 0.0851839 0.00212317 -0.0430346 0.0847616 
0.0289595 -0.0391239 0.0811005 -0.0255394 -0.0366837 0.0824983 -0.00948655 -0.0341897 0.0840442 
0.00136194 -0.0358254 0.0823884 0.0269008 -0.0356012 0.0816929 0.0348144 -0.0352124 0.0813243 
[...]
POINT_DATA 639
FIELD FieldData 7
id 1 639 int
51 207 96 100 172 50 151 262 11 
290 48 278 228 59 277 187 239 161 
2 199 164 119 137 178 371 297 269 
191 113 171 394 182 398 279 18 211 
21 169 362 87 19 166 257 208 180 
77 293 193 132 46 240 289 38 433 
304 168 58 329 94 252 480 90 184 
110 88 428 185 287 342 76 67 303 
74 134 261 65 24 62 272 250 310 
378 98 63 72 176 381 266 173 165 
102 43 95 221 274 149 49 39 275 
30 80 140 86 267 128 259 306 233 
125 15 70 32 138 141 55 353 69 
227 109 183 4 218 9 154 45 280 
12 230 28 249 237 93 202 14 406 
238 156 382 330 356 146 263 163 276 
292 204 375 35 363 247 13 10 82 
209 197 36 111 253 115 212 40 241 
112 224 159 205 130 85 383 57 89 
54 122 336 179 265 312 1 79 314 
126 22 3 106 155 255 268 20 104 
229 23 337 144 322 451 150 397 254 
244 158 256 162 288 61 117 8 246 
484 339 411 143 323 373 29 120 235 
415 71 326 321 368 83 25 470 365 
466 5 190 295 301 219 305 174 145 
41 403 225 380 313 468 167 234 200 
201 47 148 17 376 108 379 189 181 
188 401 103 37 42 68 335 302 391 
349 116 194 282 142 226 101 195 417 
483 91 73 31 26 198 99 236 121 
281 242 196 307 52 27 135 123 170 
309 114 60 7 81 16 136 152 56 
243 186 344 220 273 423 345 44 422 
390 213 351 192 426 216 6 203 97 
319 34 449 92 352 338 124 384 377 
175 299 331 367 222 425 334 286 478 
131 160 294 464 33 291 370 264 245 
217 53 260 215 317 357 347 442 311 
447 66 105 404 133 452 472 129 393 
75 327 118 285 284 210 360 147 443 
430 420 139 471 482 78 315 206 440 
248 445 251 414 402 340 479 400 346 
444 271 298 492 462 153 332 64 372 
318 127 453 354 270 324 350 107 439 
320 157 389 481 465 388 283 432 385 
214 475 231 333 177 386 395 461 474 
223 455 458 361 424 396 435 431 497 
429 456 348 316 232 341 436 399 427 
488 448 405 308 450 328 457 412 421 
258 486 296 460 343 496 84 392 469 
419 441 487 325 491 407 300 364 490 
359 418 416 366 485 463 408 438 499 
355 374 409 509 387 500 369 413 437 
504 501 503 505 508 510 358 517 511 
473 506 522 410 523 521 520 519 514 
459 515 502 446 513 526 454 507 495 
524 534 528 532 531 525 518 494 535 
516 467 533 530 536 489 544 543 434 
547 548 542 493 549 541 545 529 539 
546 498 476 562 557 540 555 559 553 
554 556 537 477 551 550 512 561 560 
558 565 568 527 552 571 564 563 574 
569 538 570 572 583 575 586 573 567 
582 580 566 577 581 578 576 584 587 
585 579 599 593 590 596 595 597 592 
600 594 598 588 608 591 613 589 612 
603 607 606 604 610 611 605 602 609 
601 619 620 617 625 614 624 622 621 
618 626 623 632 615 633 616 636 637 
627 635 639 631 634 628 630 629 638 

type 1 639 int
1 1 1 1 1 1 1 1 1 
1 1 1 1 1 1 1 1 1 
1 1 1 1 1 1 1 1 1 
1 1 1 1 1 1 1 1 1 
1 1 1 1 1 1 1 1 1 
1 1 1 1 1 1 1 1 1 
1 1 1 1 1 1 1 1 1 
1 1 1 1 1 1 1 1 1 
1 1 1 1 1 1 1 1 1 
1 1 1 1 1 1 1 1 1 
1 1 1 1 1 1 1 1 1 
1 1 1 1 1 1 1 1 1 
1 1 1 1 1 1 1 1 1 
1 1 1 1 1 1 1 1 1 
1 1 1 1 1 1 1 1 1 
1 1 1 1 1 1 1 1 1 
1 1 1 1 1 1 1 1 1 
1 1 1 1 1 1 1 1 1 
1 1 1 1 1 1 1 1 1 
1 1 1 1 1 1 1 1 1 
1 1 1 1 1 1 1 1 1 
1 1 1 1 1 1 1 1 1 
1 1 1 1 1 1 1 1 1 
1 1 1 1 1 1 1 1 1 
1 1 1 1 1 1 1 1 1 
1 1 1 1 1 1 1 1 1 
1 1 1 1 1 1 1 1 1 
1 1 1 1 1 1 1 1 1 
1 1 1 1 1 1 1 1 1 
1 1 1 1 1 1 1 1 1 
1 1 1 1 1 1 1 1 1 
1 1 1 1 1 1 1 1 1 
1 1 1 1 1 1 1 1 1 
1 1 1 1 1 1 1 1 1 
1 1 1 1 1 1 1 1 1 
1 1 1 1 1 1 1 1 1 
1 1 1 1 1 1 1 1 1 
1 1 1 1 1 1 1 1 1 
1 1 1 1 1 1 1 1 1 
1 1 1 1 1 1 1 1 1 
1 1 1 1 1 1 1 1 1 
1 1 1 1 1 1 1 1 1 
1 1 1 1 1 1 1 1 1 
1 1 1 1 1 1 1 1 1 
1 1 1 1 1 1 1 1 1 
1 1 1 1 1 1 1 1 1 
1 1 1 1 1 1 1 1 1 
1 1 1 1 1 1 1 1 1 
1 1 1 1 1 1 1 1 1 
1 1 1 1 1 1 1 1 1 
1 1 1 1 1 1 1 1 1 
1 1 1 1 1 1 1 1 1 
1 1 1 1 1 1 1 1 1 
1 1 1 1 1 1 1 1 1 
1 1 1 1 1 1 1 1 1 
1 1 1 1 1 1 1 1 1 
1 1 1 1 1 1 1 1 1 
1 1 1 1 1 1 1 1 1 
1 1 1 1 1 1 1 1 1 
1 1 1 1 1 1 1 1 1 
1 1 1 1 1 1 1 1 1 
1 1 1 1 1 1 1 1 1 
1 1 1 1 1 1 1 1 1 
1 1 1 1 1 1 1 1 1 
1 1 1 1 1 1 1 1 1 
1 1 1 1 1 1 1 1 1 
1 1 1 1 1 1 1 1 1 
1 1 1 1 1 1 1 1 1 
1 1 1 1 1 1 1 1 1 
1 1 1 1 1 1 1 1 1 
1 1 1 1 1 1 1 1 1 

i 3 639 int
0 0 0 0 0 0 0 0 0 
0 0 0 0 0 0 0 0 0 
0 0 0 0 0 0 0 0 0 
0 0 0 0 0 0 0 0 0 
0 0 0 0 0 0 0 0 0 
0 0 0 0 0 0 0 0 0 
0 0 0 0 0 0 0 0 0 
0 0 0 0 0 0 0 0 0 
0 0 0 0 0 0 0 0 0 
0 0 0 0 0 0 0 0 0 
0 0 0 0 0 0 0 0 0 
0 0 0 0 0 0 0 0 0 
0 0 0 0 0 0 0 0 0 
0 0 0 0 0 0 0 0 0 
0 0 0 0 0 0 0 0 0 
0 0 0 0 0 0 0 0 0 
0 0 0 0 0 0 0 0 0 
0 0 0 0 0 0 0 0 0 
0 0 0 0 0 0 0 0 0 
0 0 0 0 0 0 0 0 0 
0 0 0 0 0 0 0 0 0 
0 0 0 0 0 0 0 0 0 
0 0 0 0 0 0 0 0 0 
0 0 0 0 0 0 0 0 0 
0 0 0 0 0 0 0 0 0 
0 0 0 0 0 0 0 0 0 
0 0 0 0 0 0 0 0 0 
0 0 0 0 0 0 0 0 0 
0 0 0 0 0 0 0 0 0 
0 0 0 0 0 0 0 0 0 
0 0 0 0 0 0 0 0 0 
0 0 0 0 0 0 0 0 0 
0 0 0 0 0 0 0 0 0 
0 0 0 0 0 0 0 0 0 
0 0 0 0 0 0 0 0 0 
0 0 0 0 0 0 0 0 0 
0 0 0 0 0 0 0 0 0 
0 0 0 0 0 0 0 0 0 
0 0 0 0 0 0 0 0 0 
0 0 0 0 0 0 0 0 0 
0 0 0 0 0 0 0 0 0 
0 0 0 0 0 0 0 0 0 
0 0 0 0 0 0 0 0 0 
0 0 0 0 0 0 0 0 0 
0 0 0 0 0 0 0 0 0 
0 0 0 0 0 0 0 0 0 
0 0 0 0 0 0 0 0 0 
0 0 0 0 0 0 0 0 0 
0 0 0 0 0 0 0 0 0 
0 0 0 0 0 0 0 0 0 
0 0 0 0 0 0 0 0 0 
0 0 0 0 0 0 0 0 0 
0 0 0 0 0 0 0 0 0 
0 0 0 0 0 0 0 0 0 
0 0 0 0 0 0 0 0 0 
0 0 0 0 0 0 0 0 0 
0 0 0 0 0 0 0 0 0 
0 0 0 0 0 0 0 0 0 
0 0 0 0 0 0 0 0 0 
0 0 0 0 0 0 0 0 0 
0 0 0 0 0 0 0 0 0 
0 0 0 0 0 0 0 0 0 
0 0 0 0 0 0 0 0 0 
0 0 0 0 0 0 0 0 0 
0 0 0 0 0 0 0 0 0 
0 0 0 0 0 0 0 0 0 
0 0 0 0 0 0 0 0 0 
0 0 0 0 0 0 0 0 0 
0 0 0 0 0 0 0 0 0 
0 0 0 0 0 0 0 0 0 
0 0 0 0 0 0 0 0 0 
0 0 0 0 0 0 0 0 0 
0 0 0 0 0 0 0 0 0 
0 0 0 0 0 0 0 0 0 
0 0 0 0 0 0 0 0 0 
0 0 0 0 0 0 0 0 0 
0 0 0 0 0 0 0 0 0 
0 0 0 0 0 0 0 0 0 
0 0 0 0 0 0 0 0 0 
0 0 0 0 0 0 0 0 0 
0 0 0 0 0 0 0 0 0 
0 0 0 0 0 0 0 0 0 
0 0 0 0 0 0 0 0 0 
0 0 0 0 0 0 0 0 0 
0 0 0 0 0 0 0 0 0 
0 0 0 0 0 0 0 0 0 
0 0 0 0 0 0 0 0 0 
0 0 0 0 0 0 0 0 0 
0 0 0 0 0 0 0 0 0 
0 0 0 0 0 0 0 0 0 
0 0 0 0 0 0 0 0 0 
0 0 0 0 0 0 0 0 0 
0 0 0 0 0 0 0 0 0 
0 0 0 0 0 0 0 0 0 
0 0 0 0 0 0 0 0 0 
0 0 0 0 0 0 0 0 0 
0 0 0 0 0 0 0 0 0 
0 0 0 0 0 0 0 0 0 
0 0 0 0 0 0 0 0 0 
0 0 0 0 0 0 0 0 0 
0 0 0 0 0 0 0 0 0 
0 0 0 0 0 0 0 0 0 
0 0 0 0 0 0 0 0 0 
0 0 0 0 0 0 0 0 0 
0 0 0 0 0 0 0 0 0 
0 0 0 0 0 0 0 0 0 
0 0 0 0 0 0 0 0 0 
0 0 0 0 0 0 0 0 0 
0 0 0 0 0 0 0 0 0 
0 0 0 0 0 0 0 0 0 
0 0 0 0 0 0 0 0 0 
0 0 0 0 0 0 0 0 0 
0 0 0 0 0 0 0 0 0 
0 0 0 0 0 0 0 0 0 
0 0 0 0 0 0 0 0 0 
0 0 0 0 0 0 0 0 0 
0 0 0 0 0 0 0 0 0 
0 0 0 0 0 0 0 0 0 
0 0 0 0 0 0 0 0 0 
0 0 0 0 0 0 0 0 0 
0 0 0 0 0 0 0 0 0 
0 0 0 0 0 0 0 0 0 
0 0 0 0 0 0 0 0 0 
0 0 0 0 0 0 0 0 0 
0 0 0 0 0 0 0 0 0 
0 0 0 0 0 0 0 0 0 
0 0 0 0 0 0 0 0 0 
0 0 0 0 0 0 0 0 0 
0 0 0 0 0 0 0 0 0 
0 0 0 0 0 0 0 0 0 
0 0 0 0 0 0 0 0 0 
0 0 0 0 0 0 0 0 0 
0 0 0 0 0 0 0 0 0 
0 0 0 0 0 0 0 0 0 
0 0 0 0 0 0 0 0 0 
0 0 0 0 0 0 0 0 0 
0 0 0 0 0 0 0 0 0 
0 0 0 0 0 0 0 0 0 
0 0 0 0 0 0 0 0 0 
0 0 0 0 0 0 0 0 0 
0 0 0 0 0 0 0 0 0 
0 0 0 0 0 0 0 0 0 
0 0 0 0 0 0 0 0 0 
0 0 0 0 0 0 0 0 0 
0 0 0 0 0 0 0 0 0 
0 0 0 0 0 0 0 0 0 
0 0 0 0 0 0 0 0 0 
0 0 0 0 0 0 0 0 0 
0 0 0 0 0 0 0 0 0 
0 0 0 0 0 0 0 0 0 
0 0 0 0 0 0 0 0 0 
0 0 0 0 0 0 0 0 0 
0 0 0 0 0 0 0 0 0 
0 0 0 0 0 0 0 0 0 
0 0 0 0 0 0 0 0 0 
0 0 0 0 0 0 0 0 0 
0 0 0 0 0 0 0 0 0 
0 0 0 0 0 0 0 0 0 
0 0 0 0 0 0 0 0 0 
0 0 0 0 0 0 0 0 0 
0 0 0 0 0 0 0 0 0 
0 0 0 0 0 0 0 0 0 
0 0 0 0 0 0 0 0 0 
0 0 0 0 0 0 0 0 0 
0 0 0 0 0 0 0 0 0 
0 0 0 0 0 0 0 0 0 
0 0 0 0 0 0 0 0 0 
0 0 0 0 0 0 0 0 0 
0 0 0 0 0 0 0 0 0 
0 0 0 0 0 0 0 0 0 
0 0 0 0 0 0 0 0 0 
0 0 0 0 0 0 0 0 0 
0 0 0 0 0 0 0 0 0 
0 0 0 0 0 0 0 0 0 
0 0 0 0 0 0 0 0 0 
0 0 0 0 0 0 0 0 0 
0 0 0 0 0 0 0 0 0 
0 0 0 0 0 0 0 0 0 
0 0 0 0 0 0 0 0 0 
0 0 0 0 0 0 0 0 0 
0 0 0 0 0 0 0 0 0 
0 0 0 0 0 0 0 0 0 
0 0 0 0 0 0 0 0 0 
0 0 0 0 0 0 0 0 0 
0 0 0 0 0 0 0 0 0 
0 0 0 0 0 0 0 0 0 
0 0 0 0 0 0 0 0 0 
0 0 0 0 0 0 0 0 0 
0 0 0 0 0 0 0 0 0 
0 0 0 0 0 0 0 0 0 
0 0 0 0 0 0 0 0 0 
0 0 0 0 0 0 0 0 0 
0 0 0 0 0 0 0 0 0 
0 0 0 0 0 0 0 0 0 
0 0 0 0 0 0 0 0 0 
0 0 0 0 0 0 0 0 0 
0 0 0 0 0 0 0 0 0 
0 0 0 0 0 0 0 0 0 
0 0 0 0 0 0 0 0 0 
0 0 0 0 0 0 0 0 0 
0 0 0 0 0 0 0 0 0 
0 0 0 0 0 0 0 0 0 
0 0 0 0 0 0 0 0 0 
0 0 0 0 0 0 0 0 0 
0 0 0 0 0 0 0 0 0 
0 0 0 0 0 0 0 0 0 
0 0 0 0 0 0 0 0 0 
0 0 0 0 0 0 0 0 0 
0 0 0 0 0 0 0 0 0 
0 0 0 0 0 0 0 0 0 
0 0 0 0 0 0 0 0 0 
0 0 0 0 0 0 0 0 0 
0 0 0 0 0 0 0 0 0 

v 3 639 double
-0.00462595 0.0158123 -5.91486e-13 -0.000417027 0.00136591 -2.12358e-13 0.0054073 -0.0128846 0.00122204 
-0.0182658 0.0299011 0.000117292 -0.000758682 0.00432451 0.0197288 -0.0114483 -0.0261071 4.07744e-06 
-0.0159958 -0.000667565 -1.91197e-05 0.00182676 0.000570639 -4.41888e-11 -0.00373821 0.0183683 -4.14305e-13 
-0.00114701 0.0357165 -0.000578879 0.0112705 -0.00247097 0.00370702 -0.106493 -0.0941568 0.0728292 
0.0139913 -0.000474208 0.000185256 0.0193437 0.0284871 0.028748 -0.0830819 -0.0423201 0.0265243 
-0.0781011 -0.00164239 4.49527e-11 -0.0192281 0.0153748 -9.49413e-05 -0.0388201 -0.0122909 4.33182e-13 
-0.0209401 -0.0218071 1.00112e-08 -0.00716595 -0.00848078 5.24883e-11 -0.0291325 -0.0288474 0.0026089 
-0.098969 0.0609869 0.0121846 0.0528912 0.00328492 -2.08329e-12 -0.0637059 -0.0430692 -1.33665e-07 
-0.0849145 -0.00924741 -0.00164749 0.0202045 0.0180792 0.069674 0.010912 0.0240485 -2.38403e-05 
0.0539136 0.0418928 2.30117e-13 -0.0341409 -0.0950321 -5.96278e-10 -0.0756281 -0.0485925 0.00251691 
-0.124861 0.037145 0.00545519 -0.0548583 -0.00110263 -1.94996e-12 -0.0762385 -0.00183058 0.0852297 
-0.0428627 -0.110011 0.00497742 0.0392718 0.0022013 0.000365256 0.0226056 0.0137093 -0.0116962 
0.0193142 0.0474541 1.03715e-09 0.0523931 0.0241432 5.35158e-05 -0.0246695 -0.00427184 9.09662e-05 
0.057028 -0.0211479 0.279421 -0.0872491 -0.0505164 -1.34137e-09 0.0225515 0.00333519 0.0417792 
-0.046596 -0.146298 -6.61839e-05 -0.00692776 -0.00456217 0.00204615 0.00219512 -0.0105314 -0.000380516 
0.00322001 0.000926557 -0.00333495 -0.0327705 0.0355033 -0.0261432 0.0299923 -0.00734251 4.04847e-14 
0.00563267 0.109691 -0.00889633 0.00953958 -0.0374311 -1.68043e-12 0.00722267 0.0107079 -7.37591e-07 
0.0113929 0.0237787 -1.71932e-06 0.0192085 0.0212171 0.00467104 0.0462237 -0.0672817 -0.0243547 
0.0456946 -0.0563594 -0.0132789 0.0690049 0.0136763 0.0162617 0.018618 0.0617337 -0.00492028 
0.0200732 -0.00540698 3.72414e-06 0.00599413 -0.0158586 -4.33123e-08 -0.0112522 -0.144752 0.0363308 
0.563013 -0.414834 -0.0105789 -0.166566 -0.0610815 0.0431309 -0.0128625 0.0369954 -0.000265315 
-0.154046 -0.208619 0.087382 -0.0113814 -0.0914294 -0.00810506 0.0728812 0.0293981 0.171233 
-0.00393046 -0.00400277 2.24275e-05 0.0334416 -0.0158435 5.62982e-09 0.0224792 -0.0452227 -7.21501e-05 
0.0101783 -0.0485988 -8.06508e-05 0.00110272 0.0747416 0.0250783 0.0785127 -0.118688 0.000657156 
-0.00568827 -0.00608645 3.02849e-07 -0.027098 -0.0949503 0.0094506 -0.0467645 0.00691728 -0.000289253 
0.00386115 -0.0191995 2.0258e-10 0.0051624 -0.0159307 2.73133e-05 -0.0103054 -0.00790413 -0.000665499 
-0.0165626 -0.0173738 4.28883e-08 -0.189712 0.133513 -0.0294556 0.0718944 -0.0119391 0.0190805 
-0.0637243 -0.155078 0.028438 -0.175519 -0.0750107 0.069095 -0.0193336 0.0556761 1.04676e-09 
-0.0161392 0.000336717 -0.000216452 0.0169685 -0.0234532 -5.50248e-14 0.0629515 -0.0441465 1.60779e-11 
-0.104569 0.113349 0.0470825 -0.00297852 -0.0125227 0.00193145 0.0131121 0.00509452 0.00502798 
0.0885232 0.0374389 -8.46675e-14 0.144572 -0.049828 -0.00280623 0.00251687 -0.0635628 -1.49148e-13 
0.0160148 0.0277627 -0.105714 0.00594641 0.00578222 -0.0422168 0.0178705 0.0048187 7.68386e-09 
0.00235407 -0.00549329 6.36678e-13 -0.0218607 0.0250629 1.10198e-07 0.0378247 0.00432012 0.000234934 
-0.00664228 0.0524966 0.000732787 0.00390745 0.00799715 -0.0103323 -0.0480192 -0.0148151 2.40242e-05 
0.0272943 -0.0241623 -4.06926e-05 0.0399156 -0.0930517 -5.31794e-06 0.0173221 -0.0750134 -0.000656459 
0.00572713 -0.00452276 -6.72613e-08 -0.00338913 0.0133885 7.84726e-05 0.00322187 0.0393695 0.000164753 
-0.0112208 -0.00467416 -0.00173989 -0.0122686 0.00727106 -0.00137764 0.00268257 0.039352 -0.00029737 
-4.3921e-05 -0.0054817 -0.000376751 0.0237146 0.011288 -7.59503e-07 0.0127406 0.00232761 -4.73282e-14 
0.0211114 0.0651056 -0.0441017 -0.102768 0.136984 -0.071316 0.0285584 -0.0780053 5.80425e-11 
0.0210056 -0.0412056 -0.000264596 -0.0495835 -0.0435249 -4.7129e-11 -0.013879 0.070082 0.0916415 
-0.0067813 0.024131 3.16466e-06 0.0389761 0.0314116 -1.99441e-06 -0.0166431 0.017409 0.000113467 
-0.0218962 0.0383907 7.46495e-06 -0.0068624 -0.00169491 5.04646e-05 -0.00388544 0.00773719 0.000432859 
-0.0219186 0.015693 3.0797e-09 0.0773977 -0.0797308 1.16956e-09 0.0527495 -0.0420922 0.0146269 
0.158331 0.148568 -1.67739e-11 0.123688 0.00791215 -0.00105107 0.0070527 0.0889445 0.000763028 
0.0232337 -0.0101827 0.000449931 -0.0242595 0.010493 2.36472e-05 -0.0117147 0.0227264 -0.0207872 
-0.00825604 -0.0511003 -0.000427715 0.00264364 0.00299668 1.15499e-06 0.0235963 0.0275447 -4.61924e-11 
0.0120476 -0.0244413 -1.23676e-08 0.0241281 0.0148813 -0.00668518 0.0134053 0.0324971 -2.16116e-06 
0.00305142 -0.000658885 -2.51462e-05 -0.00200198 -0.050643 -0.00583286 0.0342044 0.00343115 4.66662e-05 
-0.0777525 -0.0602876 0.0110144 0.0822843 -0.0603252 -7.03006e-06 0.000471878 -0.0308777 -2.27271e-14 
0.0446811 -0.0322664 1.09608e-13 -0.00828537 0.020937 2.28944e-08 0.0570323 0.00720007 0.0113442 
-0.00152314 -0.0655815 -1.09423e-09 0.00136379 -0.0522256 -1.49148e-13 -0.00226454 -0.0229955 -1.6838e-13 
0.00624539 0.00148703 2.3022e-06 -0.00475457 -0.0488205 0.000139918 0.0375734 0.0805985 -0.011975 
0.0348472 0.058854 0.0109649 -0.0404847 -0.0242891 0.000244489 0.00746132 0.0344737 -1.55803e-07 
-0.0273804 0.0448612 5.09606e-09 -0.246971 0.0162624 0.00788768 0.0492885 -0.0167534 2.2582e-07 
0.0800605 -0.0178804 -1.47653e-05 0.00441631 0.0114059 -1.89435e-09 0.00870529 0.00538057 -4.42895e-11 
0.0105884 0.0295248 5.46172e-13 -0.0188337 -0.0426906 -6.44408e-08 -0.0295497 -0.0269146 -1.96949e-06 
-0.0591466 -0.100311 0.152161 -0.0159474 -0.036372 -1.99732e-05 0.00391018 -0.0491829 -0.000347183 
0.0550708 0.0696278 -4.51414e-12 0.0394216 -0.13501 -2.60291e-07 0.0394404 -0.0102155 0.000345432 
0.0123323 -0.0170498 2.30118e-13 0.0135723 0.0198429 -3.31486e-10 -0.0878195 0.0703953 0.00836974 
-0.00805204 -0.033118 -0.000764296 0.0142411 -0.00781475 0.000189082 0.00727072 0.277647 0.0519254 
-0.0226715 -0.0656946 -0.000768284 -0.00118784 -0.000572152 -8.59372e-14 -0.0150053 -0.0496772 0.00061723 
-0.0404972 -0.0993472 0.0103757 -0.00910926 -0.0674943 0.00431764 0.00825189 -0.0441318 -1.05666e-05 
-0.00554828 -0.00803528 0.000663228 -0.00190706 -0.0408758 0.0246111 0.0650108 -0.0792041 -0.00420391 
-0.0353007 -0.0503997 3.5645e-13 0.0372254 -0.0916093 3.55031e-13 0.146154 -0.232434 0.116726 
-0.0435868 -0.0486954 0.00653428 -0.00892681 -0.0397247 0.000665337 -0.113515 -0.0490504 -0.0478221 
0.106333 -0.0800518 0.0025115 0.00372802 -0.0219223 0.000377913 -0.00759028 0.0123722 0.000366106 
-0.0412842 -0.0955936 0.0195252 -0.00896804 -0.00321375 -0.0346787 0.094633 -0.0203359 -5.91623e-13 
0.104476 -0.11703 -3.21383e-09 0.0842704 0.00739932 -5.452e-13 -0.0179789 -0.027236 0.0026673 
-0.164811 -0.0753662 0.0553678 -0.0279206 -0.0199615 -0.000138642 0.0660585 0.0780193 -0.0384907 
0.552 0.371607 -0.490991 -0.0351525 -0.169484 -0.0450672 0.0965429 -0.0841172 0.0794698 
0.0833116 0.0273604 4.88437e-07 -0.00615028 -0.0654754 -0.0269774 0.0384227 -0.013013 -0.0193764 
-0.00408902 -0.0190649 0.0234001 -0.0110619 -0.0214734 -0.00684898 -0.0672438 0.010746 -0.0351162 
-0.0148587 0.031401 5.6584e-08 0.00189547 -0.00499799 -9.35708e-05 0.0384589 -0.22978 0.0168709 
-0.000791417 -0.0367943 -0.000343637 0.0912286 -0.110953 0.0599891 -0.00936579 -0.00756088 2.76253e-08 
0.0188807 -0.0236228 -0.00657619 0.0459031 -0.0141171 0.0213546 0.0431222 -0.0465535 1.68488e-08 
-0.0671441 -0.0136567 -0.0339963 -0.0104369 -0.0199283 -0.0294887 0.0020803 -0.0442042 6.09382e-13 
0.00897874 -0.00192148 0.000541786 -0.00640046 0.0866396 0.191409 0.005563 -0.0255341 -8.63227e-06 
-0.00789626 0.04368 0.0119669 0.029903 -0.0061878 -1.90531e-05 0.00259599 0.0458575 0.0326796 
0.00205016 -0.00256224 -0.000339889 0.040607 0.082556 5.87884e-05 0.0640997 -0.0222135 1.66907e-13 
0.142402 -0.075998 -0.00757089 0.0181791 -0.0586379 0.00872233 0.273602 0.185576 -0.0100417 
0.132846 0.0394977 -1.78245e-07 0.0169333 -0.0501987 0.000589823 0.0177694 -0.00743568 0.000384155 
-0.0322863 0.0535073 -0.00555021 0.0032183 -0.0165577 0.0131518 0.00792925 -0.0102497 -0.000133999 
-0.0265485 -0.0178489 -0.00413745 -0.00728201 -0.035563 2.16292e-08 0.0035562 -0.031269 4.84348e-08 
0.0386194 -0.000218698 6.72578e-13 -0.0931775 -0.0599251 1.66907e-13 0.0302853 -0.00274175 0.0128124 
0.0197652 -0.107602 0.00152234 0.0237298 -0.0305305 0.00169128 0.0311954 0.020562 -0.00775715 
-0.0185817 0.00274447 -0.000723584 -0.0295194 0.0425359 -0.000256971 -0.000789695 -0.00431225 0.00114152 
-0.000194885 -0.00528028 0.000851825 0.00218261 -0.00472772 3.35229e-06 -0.0832024 -0.0299842 -0.0514124 
0.0715676 -0.0353848 -0.00511491 -0.00918153 -0.0213533 -4.86654e-06 0.116129 -0.0284224 0.121909 
0.0506757 -0.0108892 -0.0169701 0.0397914 0.0117021 0.000308916 -0.0506184 0.0471296 0.00246515 
0.0218215 -0.0067729 -0.000135767 0.00397548 -0.00186955 -1.01829e-06 0.0208152 -0.00213022 -2.70506e-11 
0.304149 -0.275273 0.142859 -0.00906051 -0.0284505 -0.000444839 -0.0242587 -0.00232099 -0.00034015 
0.0603689 0.0164766 0.0142791 0.0152048 -0.0137533 -0.00769309 -0.0140906 0.0081529 0.00212438 
0.00541789 0.00376253 -0.00171337 0.00583836 0.00208893 2.48754e-07 0.0267353 -0.0282797 -2.27431e-05 
-0.0275448 -0.0504097 0.000363572 -0.0252108 -0.0353826 0.00874625 -0.000722214 -0.0141144 -0.000782612 
-0.0152079 -0.0628834 -8.05335e-07 -0.00295163 -0.00519139 -0.000704562 -0.00842635 -0.00210994 2.23242e-05 
-0.0222726 -0.0174977 -1.00284e-10 -0.0173557 -0.0140104 -1.63609e-09 -0.0420704 -0.0180952 -0.0059129 
0.0043713 -0.0147196 -0.00256515 0.0070925 -0.0397795 -0.0571012 -0.0536304 0.0356298 0.0454874 
-0.0201202 -0.0184873 -0.000106854 -0.00961606 0.0189499 -0.00657401 0.00438699 0.00415297 -0.00635332 
-0.00142206 0.00224493 -0.000340747 0.000899897 -0.0112329 0.000105435 -0.13012 -0.0236948 0.0117081 
-0.0527724 0.00734743 0.00696044 -0.0237644 0.0190561 0.0493769 -0.00673055 -0.0064472 -0.000847772 
-0.058753 0.00561984 -0.022562 0.0111582 0.00118578 -0.00207905 0.0629296 0.0632269 0.0598818 
0.145469 0.129472 0.0979897 -0.153457 -0.101184 -0.0429775 0.00961917 0.00504598 0.0390065 
-0.00974338 -0.0391624 0.0417067 0.0481216 -0.0759904 -0.15419 -0.0149309 0.0877073 0.072853 
-0.187886 0.0580372 0.0204001 -0.0334165 -0.0354733 -0.236234 -0.0254003 -0.0258544 -0.179457 
0.0426806 0.161351 0.0666215 0.0989903 -0.065472 0.0773175 -0.0947822 -0.0683637 -0.0562974 
-0.0788761 0.0468923 0.0182868 -0.134898 -0.333968 0.174269 -0.0887268 -0.0320666 -0.000979917 
-0.0275725 0.0178385 0.0188951 0.0262109 -0.0651683 -0.00846894 0.00597574 -0.00281477 -0.0550714 
0.0207218 0.0449126 0.00805863 -0.367675 -0.0251881 0.235088 0.0530512 0.259385 -0.0197659 
-0.0148987 0.0161195 -0.00126557 -0.0106941 0.0252164 0.0252642 0.181384 0.0148223 0.0447137 
0.0349688 -0.0552574 -0.247863 0.127126 0.195448 -0.264195 0.251287 -0.270873 0.192263 
0.0160533 -0.0125402 0.042247 0.031857 0.0292722 -0.00748179 0.224273 0.00550512 0.00908492 
-0.0449569 0.0810233 -0.0145543 0.0290118 -0.0892476 -0.0192804 0.00492608 -0.00147887 -0.116261 
0.00369997 0.40038 0.259955 -0.0131501 0.0309743 -0.0178425 0.034768 0.0335947 0.0212198 
-0.0109247 -0.0057512 0.00408966 0.0289572 0.103907 -0.0350444 0.120197 0.0192138 -0.0635232 
-0.0760177 -0.0533879 -0.0961652 -0.0766634 -0.0484232 0.00470297 0.0283246 -0.187267 -0.0854013 
-0.013858 -0.00779243 -0.01762 -0.0585904 -0.153841 -0.0815422 0.0335544 -0.0604424 -0.121385 
-0.0267618 -0.0530744 -0.0470378 0.0961191 -0.0326563 -0.212215 0.0553595 -0.164096 0.0316538 
-0.0333533 -0.00209785 -0.0211399 0.0528037 0.0131894 0.0586466 -0.00436394 -0.0434772 -0.0131996 
-0.0539864 -0.0211523 0.00950896 -0.172513 -0.271261 0.142854 -0.101405 -0.429299 0.260777 
0.0341381 0.160827 0.53845 -0.0788127 -0.267441 0.00264219 -0.25767 -0.0385851 -0.0510382 