# vtk DataFile Version 4.0
Generated by LIGGGHTS
ASCII
DATASET POLYDATA
POINTS 665 float
-0.012319 -0.0475753 0.0811205 -0.00904487 -0.0488211 0.0811114 -0.0035562 -0.0495029 0.0811198 
9.11119e-05 -0.0475855 0.0811199 0.00435947 -0.0485062 0.0821182 0.00942014 -0.0487463 0.0811212 
0.0128631 -0.0477931 0.0811205 -0.0203017 -0.0453319 0.0811205 -0.0146678 -0.0456691 0.0811205 
-0.0114298 -0.0442491 0.0811205 -0.00530444 -0.0470652 0.0811207 -0.00873763 -0.0454814 0.0817964 
-0.00284505 -0.0452139 0.0811205 0.000159695 -0.044209 0.0812098 0.00796569 -0.0448832 0.0811209 
0.0111915 -0.0445579 0.08112 0.0156561 -0.0464522 0.0811205 0.0197995 -0.0453237 0.0811205 
-0.0258643 -0.0411714 0.0821183 -0.0227097 -0.0435002 0.0811205 -0.0170826 -0.0438271 0.0811205 
-0.0041433 -0.0424519 0.0811206 -0.00124017 -0.0415392 0.0811203 0.0143809 -0.0422851 0.0821183 
0.0250612 -0.040574 0.0811205 -0.0249055 -0.0373484 0.0812931 -0.0191418 -0.039517 0.0821183 
-0.00885581 -0.039286 0.0811205 -0.00373897 -0.0386255 0.0822558 0.000236366 -0.0381454 0.0811205 
0.00915549 -0.0399831 0.0821183 0.0289277 -0.0396717 0.0811268 0.0323076 -0.0376769 0.0811202 
-0.0333871 -0.0335783 0.0821193 -0.0272657 -0.0342026 0.0811205 -0.0203099 -0.0342414 0.0821159 
-0.0141431 -0.0362257 0.0811205 -0.00620813 -0.0339357 0.0821183 -0.000919632 -0.0352618 0.0818743 
0.00849247 -0.0334442 0.0815051 0.0104691 -0.0357428 0.0811563 0.0177446 -0.0335348 0.0811611 
0.0221333 -0.0368425 0.0821176 0.0270719 -0.0362447 0.081121 0.0308121 -0.0340724 0.0821181 
0.0345806 -0.0355397 0.0811519 -0.0372003 -0.0328515 0.0811271 -0.0391533 -0.0305599 0.0811206 
-0.0357105 -0.0302255 0.0811207 -0.0293338 -0.031451 0.081145 -0.0177866 -0.0309288 0.0812988 
-0.000224214 -0.0323056 0.0821258 0.0148362 -0.0324408 0.0811141 0.017109 -0.0305007 0.0811232 
0.0209329 -0.0298723 0.0821185 0.0364124 -0.032406 0.0811205 0.0390138 -0.03054 0.0811205 
-0.0408264 -0.0280573 0.0812376 -0.0368189 -0.02744 0.0811227 -0.0328009 -0.0296337 0.0817365 
-0.0301029 -0.0284509 0.081122 -0.0271959 -0.0293124 0.0815661 -0.0211255 -0.0279893 0.0821259 
-0.0149693 -0.0265609 0.0811205 -0.00978079 -0.0292622 0.082245 0.000672692 -0.0268819 0.0813425 
0.0175235 -0.0267563 0.0811205 0.0284083 -0.0294206 0.0821244 0.0353647 -0.0280299 0.0821184 
0.0401846 -0.027846 0.0820168 -0.0429931 -0.0247916 0.0811205 -0.0390537 -0.025538 0.081742 
-0.0277979 -0.0253141 0.0821187 -0.0226011 -0.0229541 0.081121 -0.0182568 -0.0249548 0.0811205 
-0.0140697 -0.0236344 0.0814638 -0.00915728 -0.0245607 0.0811205 0.0130212 -0.0252318 0.0813186 
0.0308453 -0.0220488 0.0818411 0.0425584 -0.025458 0.0811205 -0.0438967 -0.0208158 0.0821182 
-0.034776 -0.0231707 0.081491 -0.0299723 -0.0197084 0.0811201 -0.0330615 -0.0194544 0.0826469 
-0.0260248 -0.0198562 0.0821175 -0.0215683 -0.0201371 0.0811204 -0.0171557 -0.0208324 0.0821183 
-0.00551561 -0.0224021 0.0820961 0.00455749 -0.0218494 0.0821185 0.0200285 -0.0197564 0.0813844 
0.0372495 -0.0195462 0.0811205 0.0439818 -0.0227887 0.0811223 -0.0460406 -0.0169495 0.0811205 
-0.038094 -0.017182 0.0823911 -0.0220861 -0.0171845 0.0811203 -0.0183367 -0.0158248 0.0811361 
-0.0098558 -0.0164842 0.0811205 0.00358215 -0.0172853 0.0811205 0.00871893 -0.0186432 0.0821183 
0.0166928 -0.0190471 0.0814077 0.0234273 -0.0174269 0.0811854 0.0452113 -0.0178761 0.0822313 
-0.047612 -0.0135896 0.0811205 -0.0445137 -0.0125101 0.0811205 -0.0317903 -0.0149942 0.0811214 
-0.024993 -0.0156676 0.0811205 -0.0149093 -0.0150351 0.0811205 -0.00676217 -0.0122701 0.0820264 
0.00888623 -0.0139255 0.0811641 0.0338931 -0.012855 0.0821182 0.0382862 -0.012337 0.0811205 
0.042429 -0.0152409 0.0811142 0.0412986 -0.0124567 0.0811205 0.0447588 -0.0131551 0.0811195 
0.0475749 -0.0142269 0.0811211 -0.0474276 -0.0097179 0.0821181 -0.0345184 -0.0107899 0.0811205 
-0.0306407 -0.0111752 0.0821183 -0.0254887 -0.0120045 0.0811205 -0.0221797 -0.00986475 0.0821183 
-0.018066 -0.0118835 0.0811205 -0.0137091 -0.00920107 0.0811205 -0.0112782 -0.0111428 0.0811205 
0.00607201 -0.00982869 0.0821179 0.0148333 -0.0110044 0.0812626 0.0256434 -0.0114704 0.0821193 
0.0299754 -0.0113 0.0811205 0.041026 -0.00936527 0.0814866 -0.049243 -0.00607978 0.0812259 
-0.0376587 -0.00839678 0.0821437 -0.0345413 -0.00555475 0.0811205 -0.0287065 -0.00769272 0.0811205 
-0.0224562 -0.00576299 0.0811205 -0.0173319 -0.00830615 0.0811198 -0.0168217 -0.00549984 0.0823028 
-0.0141461 -0.00617563 0.0811207 -0.0113026 -0.00732862 0.0811205 -0.00907759 -0.00530465 0.0811205 
-0.00784666 -0.00851512 0.0811205 -0.00347855 -0.00847484 0.0821145 0.0016045 -0.00886027 0.0811205 
0.00720998 -0.00612582 0.0811228 0.0182125 -0.0082837 0.0811205 0.0227277 -0.00767598 0.0811205 
0.029464 -0.00607777 0.0811205 0.0343157 -0.00785185 0.0821184 0.0384179 -0.00793705 0.0811171 
0.0472319 -0.00594104 0.0811209 0.0488401 -0.008588 0.0811368 -0.048536 -0.00209802 0.082118 
-0.0437695 -0.00360071 0.0811205 -0.0407142 -0.00380591 0.0819583 -0.019527 -0.00497256 0.0811204 
-0.0215895 -0.00277629 0.0811203 -0.013483 -0.00317153 0.0811206 -0.0057609 -0.00516947 0.0811205 
-0.00597703 -0.00206882 0.0811205 -0.00189671 -0.00443741 0.0811197 0.00942786 -0.00400619 0.0814369 
0.0133186 -0.00447836 0.0811205 0.0158363 -0.00270522 0.0811205 0.0256 -0.00497494 0.0821182 
0.0321621 -0.00462679 0.0811205 0.0396152 -0.0041613 0.0821204 0.0434736 -0.00423175 0.0811136 
0.0495463 -0.00308886 0.0811205 -0.0444429 0.000775695 0.0821187 -0.0354983 -0.00142684 0.0821091 
-0.0310025 0.000434912 0.0811292 -0.0273764 -0.000657019 0.0820322 -0.0240604 -0.00105847 0.0811204 
-0.0168543 -0.00112264 0.0821183 -0.0115111 -0.000632582 0.0811205 0.013278 -0.000618875 0.0811205 
0.0159759 0.00100984 0.0811205 0.0209349 0.00111343 0.0811471 0.0299635 -0.00121017 0.0821183 
0.0344979 -0.000363227 0.0811205 0.046036 -0.00118779 0.0821183 -0.0489921 0.00365899 0.0811205 
-0.0384107 0.00439462 0.0812287 -0.0357454 0.00306285 0.08113 -0.0299971 0.00337745 0.0811205 
-0.0271049 0.00234544 0.0811205 -0.0186174 0.00243499 0.0811205 -0.012267 0.00429846 0.0821183 
-0.00645675 0.00198901 0.0821182 0.010755 0.00319653 0.0821183 0.0167024 0.00501043 0.0811205 
0.0195949 0.00380684 0.0811206 0.022948 0.00337995 0.0811206 0.0259427 0.00498478 0.0811205 
0.026401 0.0018328 0.0811205 0.0361127 0.00407191 0.0813936 -0.0480958 0.00743754 0.0821165 
-0.0423363 0.00531086 0.0821181 -0.034268 0.00591703 0.0811218 -0.0278114 0.0066799 0.0811205 
0.00632173 0.0057291 0.0821183 0.0113646 0.00835893 0.0821224 0.0186875 0.00801855 0.0811205 
0.0317398 0.00803029 0.0822392 0.03452 0.00737464 0.0811148 -0.0456274 0.01178 0.0821209 
-0.04251 0.00918403 0.0811214 -0.0367641 0.0117383 0.0811197 -0.033048 0.00985292 0.0821184 
0.0236842 0.00866271 0.0811205 0.0273347 0.0104379 0.0811205 0.0383235 0.00945616 0.0812185 
-0.0396274 0.0144742 0.0821182 -0.0203544 0.0136167 0.0813562 -0.0145743 0.0124165 0.0811311 
-0.0111365 0.0145356 0.0824845 0.00757173 0.0124359 0.0811205 0.0128059 0.0122316 0.0811205 
0.017 0.0123716 0.0821183 0.0228004 0.0148767 0.0811204 0.0273337 0.0152437 0.0822076 
0.0338046 0.0156601 0.0811205 -0.0456647 0.0167906 0.0821098 -0.0409108 0.0181677 0.0811208 
-0.0306939 0.0170985 0.0811205 -0.0116407 0.0190534 0.0811205 0.00518354 0.0158223 0.0811205 
0.0205686 0.0170664 0.0812095 0.0441451 0.0159891 0.082118 -0.043372 0.0212674 0.0821185 
-0.0372287 0.0193921 0.0821183 -0.0283905 0.0203812 0.0821196 -0.00462814 0.0207791 0.0821384 
0.00376591 0.0220861 0.0821675 0.0155465 0.0198756 0.0814497 0.0312674 0.019663 0.0824299 
0.0448449 0.0199679 0.0812665 -0.0395895 0.0233675 0.0811205 -0.0362174 0.0256127 0.0811205 
-0.0342864 0.0230809 0.0811403 -0.0312888 0.0229384 0.0811165 -0.0332072 0.0259392 0.0811205 
-0.0255576 0.0246775 0.0821198 -0.0169002 0.0229838 0.0811205 -0.0186432 0.0254458 0.0811205 
-0.0120261 0.0229465 0.0821183 -0.00584748 0.0245014 0.08139 0.0295832 0.0236716 0.0811205 
0.0327836 0.0235082 0.0811205 0.0356897 0.0247635 0.0811204 0.0415489 0.0246442 0.082116 
-0.0401988 0.0272984 0.0821183 -0.032192 0.0296833 0.0821184 -0.0277569 0.0292797 0.0811205 
-0.0169429 0.0292322 0.0811205 -0.0120185 0.0273013 0.0811205 -0.00712729 0.0290609 0.0811694 
0.000579216 0.0287036 0.0811205 0.0153445 0.0296761 0.0811606 0.0154372 0.0266476 0.0813884 
0.0275189 0.0268692 0.0811205 0.0313883 0.0271608 0.082323 0.0352997 0.0277367 0.0811254 
0.0406438 0.0285026 0.0811205 -0.0380838 0.0305835 0.0811179 -0.0351843 0.032155 0.0811205 
-0.0252515 0.0311433 0.0811205 -0.0154435 0.0329813 0.0811205 -0.0106773 0.0308512 0.0816787 
-0.00470476 0.0308488 0.0820437 0.0047421 0.031032 0.0814107 0.0115777 0.0325999 0.081118 
0.0148295 0.0332169 0.0811676 0.0282903 0.0298333 0.0811205 0.0303226 0.0323826 0.0811205 
0.0333242 0.0324078 0.0811207 0.0376104 0.0309229 0.0821144 -0.0331585 0.0355059 0.0821165 
-0.0283937 0.0339289 0.0821142 -0.0247077 0.0352483 0.0811205 -0.0218402 0.0343576 0.0811215 
0.0166997 0.035773 0.0827224 0.0265377 0.0333881 0.0821187 0.0292521 0.0362844 0.0811234 
0.0357044 0.0343057 0.08112 0.0336588 0.0365299 0.0811205 -0.0288436 0.0389766 0.0821183 
-0.0228395 0.0382 0.0811205 0.00140388 0.0390866 0.0821183 0.00649687 0.0392503 0.0821102 
0.0115261 0.0369621 0.0811205 0.0118108 0.0401422 0.081134 0.0252524 0.0370692 0.0811205 
0.0277538 0.0400387 0.0821192 0.0313336 0.0384509 0.0811212 -0.0246901 0.0419433 0.0821183 
-0.0188412 0.0405468 0.0821182 -0.0150458 0.0413124 0.0811221 -0.0121855 0.0404146 0.0811197 
-0.00831812 0.0406142 0.0821182 0.00948428 0.0435289 0.0821453 0.0227762 0.0404833 0.0821192 
-0.0178906 0.0456906 0.0811205 -0.0150258 0.0470382 0.0811205 -0.0120598 0.0445182 0.082118 
-0.00451572 0.0441616 0.0821787 -0.000973047 0.0457182 0.0811206 0.00280378 0.0462372 0.0821038 
0.00606233 0.0457216 0.081119 0.0134302 0.0466318 0.0824333 0.019659 0.0444251 0.0821184 
-0.00763572 0.0491146 0.0811194 -0.00460622 0.0489974 0.0811205 -0.00161155 0.0486621 0.0811209 
[...]
POINT_DATA 665
FIELD FieldData 7
id 1 665 int
51 207 96 100 172 50 151 262 11 
290 48 278 228 59 277 187 239 161 
2 199 164 137 178 371 279 213 269 
113 171 394 182 390 18 211 21 169 
191 362 192 510 19 166 257 426 208 
216 180 77 304 293 193 252 46 90 
449 240 289 38 433 168 58 329 94 
342 132 492 303 184 92 110 88 428 
185 24 287 338 76 378 444 74 134 
496 261 381 65 62 272 67 310 98 
63 72 176 425 173 165 250 102 43 
367 95 221 274 149 266 49 275 30 
478 80 227 140 86 128 267 259 306 
233 125 15 39 32 138 28 64 131 
69 109 294 4 330 218 9 70 33 
45 280 12 141 55 230 204 353 237 
202 14 406 10 238 156 382 509 154 
356 263 163 292 276 375 249 35 93 
363 247 13 82 209 197 36 291 253 
146 212 241 122 112 159 205 130 85 
217 57 89 111 115 54 40 106 155 
336 179 265 224 312 1 79 126 22 
3 104 229 337 255 144 268 20 347 
23 162 442 322 451 150 397 339 244 
158 256 411 288 105 61 8 71 254 
326 373 29 120 235 246 284 505 143 
368 83 25 470 365 466 5 415 190 
295 380 219 305 174 145 41 17 403 
108 225 189 313 188 393 167 234 200 
201 47 148 376 349 379 395 181 468 
139 401 103 37 42 68 335 302 391 
116 282 142 226 101 195 417 307 91 
73 440 26 198 99 236 121 281 242 
196 52 27 135 123 170 309 114 60 
7 81 16 136 152 56 243 186 344 
220 273 479 423 119 44 422 297 398 
87 203 97 416 421 351 480 346 319 
6 400 352 460 485 175 299 331 124 
332 377 222 286 372 463 160 183 370 
264 383 260 245 354 392 348 53 316 
215 317 439 350 357 107 314 311 447 
157 117 66 320 404 385 436 129 323 
427 484 321 285 147 301 500 75 214 
118 231 508 327 210 488 443 333 360 
483 471 194 420 315 455 206 31 78 
474 223 445 251 414 402 340 396 491 
345 34 435 298 486 271 296 318 153 
334 517 84 464 127 490 232 270 133 
452 487 359 389 341 388 465 418 399 
504 503 283 405 501 432 177 499 430 
386 325 482 374 328 424 361 248 412 
511 258 497 364 431 366 384 462 429 
419 481 324 475 461 523 407 343 453 
472 308 355 458 457 300 456 519 441 
437 514 450 515 473 520 513 448 409 
469 526 408 369 502 506 522 528 524 
387 534 521 459 531 438 525 413 446 
533 507 454 535 532 410 530 536 358 
495 544 543 547 516 542 518 548 545 
549 541 494 546 467 434 562 539 557 
540 555 489 559 553 554 493 556 477 
561 558 551 565 568 552 537 571 498 
529 564 563 574 476 569 550 560 570 
583 572 527 512 586 582 580 575 577 
581 578 584 585 579 576 599 590 596 
538 593 597 600 594 595 598 588 592 
589 573 567 608 603 591 613 566 587 
612 607 606 604 611 605 610 602 609 
601 619 614 624 620 618 617 625 622 
621 623 626 632 615 633 616 636 637 
627 635 639 631 634 628 630 629 638 
641 649 652 643 651 645 648 640 642 
650 647 646 658 644 665 655 663 660 
659 656 654 661 662 657 653 664 
type 1 665 int
1 1 1 1 1 1 1 1 1 
1 1 1 1 1 1 1 1 1 
1 1 1 1 1 1 1 1 1 
1 1 1 1 1 1 1 1 1 
1 1 1 1 1 1 1 1 1 
1 1 1 1 1 1 1 1 1 
1 1 1 1 1 1 1 1 1 
1 1 1 1 1 1 1 1 1 
1 1 1 1 1 1 1 1 1 
1 1 1 1 1 1 1 1 1 
1 1 1 1 1 1 1 1 1 
1 1 1 1 1 1 1 1 1 
1 1 1 1 1 1 1 1 1 
1 1 1 1 1 1 1 1 1 
1 1 1 1 1 1 1 1 1 
1 1 1 1 1 1 1 1 1 
1 1 1 1 1 1 1 1 1 
1 1 1 1 1 1 1 1 1 
1 1 1 1 1 1 1 1 1 
1 1 1 1 1 1 1 1 1 
1 1 1 1 1 1 1 1 1 
1 1 1 1 1 1 1 1 1 
1 1 1 1 1 1 1 1 1 
1 1 1 1 1 1 1 1 1 
1 1 1 1 1 1 1 1 1 
1 1 1 1 1 1 1 1 1 
1 1 1 1 1 1 1 1 1 
1 1 1 1 1 1 1 1 1 
1 1 1 1 1 1 1 1 1 
1 1 1 1 1 1 1 1 1 
1 1 1 1 1 1 1 1 1 
1 1 1 1 1 1 1 1 1 
1 1 1 1 1 1 1 1 1 
1 1 1 1 1 1 1 1 1 
1 1 1 1 1 1 1 1 1 
1 1 1 1 1 1 1 1 1 
1 1 1 1 1 1 1 1 1 
1 1 1 1 1 1 1 1 1 
1 1 1 1 1 1 1 1 1 
1 1 1 1 1 1 1 1 1 
1 1 1 1 1 1 1 1 1 
1 1 1 1 1 1 1 1 1 
1 1 1 1 1 1 1 1 1 
1 1 1 1 1 1 1 1 1 
1 1 1 1 1 1 1 1 1 
1 1 1 1 1 1 1 1 1 
1 1 1 1 1 1 1 1 1 
1 1 1 1 1 1 1 1 1 
1 1 1 1 1 1 1 1 1 
1 1 1 1 1 1 1 1 1 
1 1 1 1 1 1 1 1 1 
1 1 1 1 1 1 1 1 1 
1 1 1 1 1 1 1 1 1 
1 1 1 1 1 1 1 1 1 
1 1 1 1 1 1 1 1 1 
1 1 1 1 1 1 1 1 1 
1 1 1 1 1 1 1 1 1 
1 1 1 1 1 1 1 1 1 
1 1 1 1 1 1 1 1 1 
1 1 1 1 1 1 1 1 1 
1 1 1 1 1 1 1 1 1 
1 1 1 1 1 1 1 1 1 
1 1 1 1 1 1 1 1 1 
1 1 1 1 1 1 1 1 1 
1 1 1 1 1 1 1 1 1 
1 1 1 1 1 1 1 1 1 
1 1 1 1 1 1 1 1 1 
1 1 1 1 1 1 1 1 1 
1 1 1 1 1 1 1 1 1 
1 1 1 1 1 1 1 1 1 
1 1 1 1 1 1 1 1 1 
1 1 1 1 1 1 1 1 1 
1 1 1 1 1 1 1 1 1 
1 1 1 1 1 1 1 1 
i 3 665 int
0 0 0 0 0 0 0 0 0 
0 0 0 0 0 0 0 0 0 
0 0 0 0 0 0 0 0 0 
0 0 0 0 0 0 0 0 0 
0 0 0 0 0 0 0 0 0 
0 0 0 0 0 0 0 0 0 
0 0 0 0 0 0 0 0 0 
0 0 0 0 0 0 0 0 0 
0 0 0 0 0 0 0 0 0 
0 0 0 0 0 0 0 0 0 
0 0 0 0 0 0 0 0 0 
0 0 0 0 0 0 0 0 0 
0 0 0 0 0 0 0 0 0 
0 0 0 0 0 0 0 0 0 
0 0 0 0 0 0 0 0 0 
0 0 0 0 0 0 0 0 0 
0 0 0 0 0 0 0 0 0 
0 0 0 0 0 0 0 0 0 
0 0 0 0 0 0 0 0 0 
0 0 0 0 0 0 0 0 0 
0 0 0 0 0 0 0 0 0 
0 0 0 0 0 0 0 0 0 
0 0 0 0 0 0 0 0 0 
0 0 0 0 0 0 0 0 0 
0 0 0 0 0 0 0 0 0 
0 0 0 0 0 0 0 0 0 
0 0 0 0 0 0 0 0 0 
0 0 0 0 0 0 0 0 0 
0 0 0 0 0 0 0 0 0 
0 0 0 0 0 0 0 0 0 
0 0 0 0 0 0 0 0 0 
0 0 0 0 0 0 0 0 0 
0 0 0 0 0 0 0 0 0 
0 0 0 0 0 0 0 0 0 
0 0 0 0 0 0 0 0 0 
0 0 0 0 0 0 0 0 0 
0 0 0 0 0 0 0 0 0 
0 0 0 0 0 0 0 0 0 
0 0 0 0 0 0 0 0 0 
0 0 0 0 0 0 0 0 0 
0 0 0 0 0 0 0 0 0 
0 0 0 0 0 0 0 0 0 
0 0 0 0 0 0 0 0 0 
0 0 0 0 0 0 0 0 0 
0 0 0 0 0 0 0 0 0 
0 0 0 0 0 0 0 0 0 
0 0 0 0 0 0 0 0 0 
0 0 0 0 0 0 0 0 0 
0 0 0 0 0 0 0 0 0 
0 0 0 0 0 0 0 0 0 
0 0 0 0 0 0 0 0 0 
0 0 0 0 0 0 0 0 0 
0 0 0 0 0 0 0 0 0 
0 0 0 0 0 0 0 0 0 
0 0 0 0 0 0 0 0 0 
0 0 0 0 0 0 0 0 0 
0 0 0 0 0 0 0 0 0 
0 0 0 0 0 0 0 0 0 
0 0 0 0 0 0 0 0 0 
0 0 0 0 0 0 0 0 0 
0 0 0 0 0 0 0 0 0 
0 0 0 0 0 0 0 0 0 
0 0 0 0 0 0 0 0 0 
0 0 0 0 0 0 0 0 0 
0 0 0 0 0 0 0 0 0 
0 0 0 0 0 0 0 0 0 
0 0 0 0 0 0 0 0 0 
0 0 0 0 0 0 0 0 0 
0 0 0 0 0 0 0 0 0 
0 0 0 0 0 0 0 0 0 
0 0 0 0 0 0 0 0 0 
0 0 0 0 0 0 0 0 0 
0 0 0 0 0 0 0 0 0 
0 0 0 0 0 0 0 0 0 
0 0 0 0 0 0 0 0 0 
0 0 0 0 0 0 0 0 0 
0 0 0 0 0 0 0 0 0 
0 0 0 0 0 0 0 0 0 
0 0 0 0 0 0 0 0 0 
0 0 0 0 0 0 0 0 0 
0 0 0 0 0 0 0 0 0 
0 0 0 0 0 0 0 0 0 
0 0 0 0 0 0 0 0 0 
0 0 0 0 0 0 0 0 0 
0 0 0 0 0 0 0 0 0 
0 0 0 0 0 0 0 0 0 
0 0 0 0 0 0 0 0 0 
0 0 0 0 0 0 0 0 0 
0 0 0 0 0 0 0 0 0 
0 0 0 0 0 0 0 0 0 
0 0 0 0 0 0 0 0 0 
0 0 0 0 0 0 0 0 0 
0 0 0 0 0 0 0 0 0 
0 0 0 0 0 0 0 0 0 
0 0 0 0 0 0 0 0 0 
0 0 0 0 0 0 0 0 0 
0 0 0 0 0 0 0 0 0 
0 0 0 0 0 0 0 0 0 
0 0 0 0 0 0 0 0 0 
0 0 0 0 0 0 0 0 0 
0 0 0 0 0 0 0 0 0 
0 0 0 0 0 0 0 0 0 
0 0 0 0 0 0 0 0 0 
0 0 0 0 0 0 0 0 0 
0 0 0 0 0 0 0 0 0 
0 0 0 0 0 0 0 0 0 
0 0 0 0 0 0 0 0 0 
0 0 0 0 0 0 0 0 0 
0 0 0 0 0 0 0 0 0 
0 0 0 0 0 0 0 0 0 
0 0 0 0 0 0 0 0 0 
0 0 0 0 0 0 0 0 0 
0 0 0 0 0 0 0 0 0 
0 0 0 0 0 0 0 0 0 
0 0 0 0 0 0 0 0 0 
0 0 0 0 0 0 0 0 0 
0 0 0 0 0 0 0 0 0 
0 0 0 0 0 0 0 0 0 
0 0 0 0 0 0 0 0 0 
0 0 0 0 0 0 0 0 0 
0 0 0 0 0 0 0 0 0 
0 0 0 0 0 0 0 0 0 
0 0 0 0 0 0 0 0 0 
0 0 0 0 0 0 0 0 0 
0 0 0 0 0 0 0 0 0 
0 0 0 0 0 0 0 0 0 
0 0 0 0 0 0 0 0 0 
0 0 0 0 0 0 0 0 0 
0 0 0 0 0 0 0 0 0 
0 0 0 0 0 0 0 0 0 
0 0 0 0 0 0 0 0 0 
0 0 0 0 0 0 0 0 0 
0 0 0 0 0 0 0 0 0 
0 0 0 0 0 0 0 0 0 
0 0 0 0 0 0 0 0 0 
0 0 0 0 0 0 0 0 0 
0 0 0 0 0 0 0 0 0 
0 0 0 0 0 0 0 0 0 
0 0 0 0 0 0 0 0 0 
0 0 0 0 0 0 0 0 0 
0 0 0 0 0 0 0 0 0 
0 0 0 0 0 0 0 0 0 
0 0 0 0 0 0 0 0 0 
0 0 0 0 0 0 0 0 0 
0 0 0 0 0 0 0 0 0 
0 0 0 0 0 0 0 0 0 
0 0 0 0 0 0 0 0 0 
0 0 0 0 0 0 0 0 0 
0 0 0 0 0 0 0 0 0 
0 0 0 0 0 0 0 0 0 
0 0 0 0 0 0 0 0 0 
0 0 0 0 0 0 0 0 0 
0 0 0 0 0 0 0 0 0 
0 0 0 0 0 0 0 0 0 
0 0 0 0 0 0 0 0 0 
0 0 0 0 0 0 0 0 0 
0 0 0 0 0 0 0 0 0 
0 0 0 0 0 0 0 0 0 
0 0 0 0 0 0 0 0 0 
0 0 0 0 0 0 0 0 0 
0 0 0 0 0 0 0 0 0 
0 0 0 0 0 0 0 0 0 
0 0 0 0 0 0 0 0 0 
0 0 0 0 0 0 0 0 0 
0 0 0 0 0 0 0 0 0 
0 0 0 0 0 0 0 0 0 
0 0 0 0 0 0 0 0 0 
0 0 0 0 0 0 0 0 0 
0 0 0 0 0 0 0 0 0 
0 0 0 0 0 0 0 0 0 
0 0 0 0 0 0 0 0 0 
0 0 0 0 0 0 0 0 0 
0 0 0 0 0 0 0 0 0 
0 0 0 0 0 0 0 0 0 
0 0 0 0 0 0 0 0 0 
0 0 0 0 0 0 0 0 0 
0 0 0 0 0 0 0 0 0 
0 0 0 0 0 0 0 0 0 
0 0 0 0 0 0 0 0 0 
0 0 0 0 0 0 0 0 0 
0 0 0 0 0 0 0 0 0 
0 0 0 0 0 0 0 0 0 
0 0 0 0 0 0 0 0 0 
0 0 0 0 0 0 0 0 0 
0 0 0 0 0 0 0 0 0 
0 0 0 0 0 0 0 0 0 
0 0 0 0 0 0 0 0 0 
0 0 0 0 0 0 0 0 0 
0 0 0 0 0 0 0 0 0 
0 0 0 0 0 0 0 0 0 
0 0 0 0 0 0 0 0 0 
0 0 0 0 0 0 0 0 0 
0 0 0 0 0 0 0 0 0 
0 0 0 0 0 0 0 0 0 
0 0 0 0 0 0 0 0 0 
0 0 0 0 0 0 0 0 0 
0 0 0 0 0 0 0 0 0 
0 0 0 0 0 0 0 0 0 
0 0 0 0 0 0 0 0 0 
0 0 0 0 0 0 0 0 0 
0 0 0 0 0 0 0 0 0 
0 0 0 0 0 0 0 0 0 
0 0 0 0 0 0 0 0 0 
0 0 0 0 0 0 0 0 0 
0 0 0 0 0 0 0 0 0 
0 0 0 0 0 0 0 0 0 
0 0 0 0 0 0 0 0 0 
0 0 0 0 0 0 0 0 0 
0 0 0 0 0 0 0 0 0 
0 0 0 0 0 0 0 0 0 
0 0 0 0 0 0 0 0 0 
0 0 0 0 0 0 0 0 0 
0 0 0 0 0 0 0 0 0 
0 0 0 0 0 0 0 0 0 
0 0 0 0 0 0 0 0 0 
0 0 0 0 0 0 0 0 0 
0 0 0 0 0 0 0 0 0 
0 0 0 0 0 0 0 0 0 
0 0 0 0 0 0 0 0 0 
0 0 0 0 0 0 0 0 0 
0 0 0 0 0 0 0 0 0 
0 0 0 0 0 0 
v 3 665 double
0.00585197 0.00565873 8.90413e-06 0.00383933 -0.0251073 -0.00152106 0.00120115 -0.000180095 0.000205205 
-0.0201755 0.0308283 5.40594e-06 0.000839051 -0.00157388 4.82701e-05 -0.0352695 0.000839777 -0.00208445 
-0.0159966 -0.000667875 5.21749e-11 0.00182676 0.000570639 -1.49148e-13 0.00484712 0.011321 -4.68471e-06 
-0.0455725 0.0251762 -4.03726e-06 0.00583381 0.00678187 -0.000617387 -0.0524651 -0.0053396 -0.0426641 
0.0139909 -0.000474041 -1.51739e-09 0.0167232 -0.00353706 -0.0758856 -0.0847545 -0.0399002 0.000427051 
-0.070842 -0.00159019 -0.0100217 -0.0192279 0.0153747 -1.34278e-10 -0.0388201 -0.0122909 4.19751e-13 
-0.0240589 -0.0262832 -1.1482e-05 -0.00716595 -0.00848078 -8.59381e-14 -0.0329827 -0.0256033 -8.95559e-07 
-0.0115705 -0.0500606 -0.000611667 -0.0578965 -0.0267629 -0.000299354 -0.0851797 -0.0108473 3.59634e-07 
-0.0428542 -0.110001 -7.85269e-08 0.0656181 -0.0238139 0.0258021 -0.0248614 0.0452542 1.50147e-05 
-0.0341409 -0.0950321 -1.49046e-13 -0.0460834 -0.0470441 -0.00456307 -0.124876 0.0373472 -8.28648e-07 
-0.0637812 -0.05159 3.69021e-05 -0.0026813 -0.0456391 -0.00290973 0.026688 0.0271376 -0.000693676 
0.0364074 -0.0200411 0.00148301 0.0193142 0.0474541 -2.12481e-13 0.048649 0.0054058 -0.000551452 
0.0539136 0.0418928 2.30117e-13 -0.0246697 -0.00427187 -5.77459e-08 -0.208988 -0.0492988 -0.13556 
0.325096 0.0961719 0.446339 0.201744 -0.119031 0.0290479 0.0860287 -0.0646475 -0.0690841 
-0.0444855 -0.14452 0.00112362 -0.0143525 -0.0558219 0.0192865 -0.00996107 0.0150381 -0.000685286 
0.00233356 -0.0216142 -0.0473775 0.0233836 -0.00981938 -0.0014847 0.00957029 -0.00583542 -0.000898269 
0.0301373 0.0105166 0.000753255 -0.0601308 0.0132186 0.000446751 0.0919278 0.117256 0.113626 
0.00985015 -0.0374157 -0.0431496 0.0213897 -0.0627885 -0.0170499 -0.00553879 -0.0156903 0.0132969 
-0.0499411 -0.0160299 0.000795872 0.00722267 0.0107079 -9.30982e-12 0.0113929 0.0237787 1.93551e-10 
0.0407298 0.0300366 0.0438655 0.134998 0.0504827 -0.0119121 0.0640619 -0.0129101 0.0094653 
0.0697237 -0.00768125 -0.00221884 -0.0391451 0.0141284 0.20686 0.0154002 0.0527417 -0.00213119 
0.0204103 -0.0536132 2.79224e-07 0.0301134 0.0869382 0.0185968 0.113253 -0.23297 0.010397 
0.0590324 -0.0885474 -5.93365e-10 -0.0531686 -0.00456317 0.00804553 -0.0413195 0.00731874 -0.00170282 
0.0578336 -0.084906 0.0214994 0.033605 -0.043139 -4.16924e-08 0.127696 0.0828435 -0.0942877 
0.0380614 0.0372698 -0.000715498 0.0334402 -0.0106437 0.00168148 0.0334416 -0.0158435 -5.85105e-13 
0.00803527 0.0053317 -0.171866 0.0101784 -0.0485989 5.65536e-10 -0.0637243 -0.155078 -0.089282 
0.0970021 0.437173 0.13168 -0.00568827 -0.00608645 -4.03495e-12 -0.0040291 -0.0287532 -5.27409e-05 
0.32109 -0.319513 -0.213167 -0.00427449 -0.00344441 -0.00238926 0.0884105 -0.0606775 0.139028 
0.0269907 -0.0220724 0.000174912 -0.0050955 0.00353541 0.000838986 -0.0165626 -0.0173738 -5.52374e-11 
-0.0160619 0.0796555 -0.0135497 0.0720265 -0.0131054 0.00149376 -0.338113 -0.0113586 0.113268 
-0.0193336 0.0556761 -2.28947e-14 -0.0136742 0.000509854 0.000519873 0.0169685 -0.0234532 -8.59372e-14 
0.204757 -0.0487448 0.0228721 -0.00864165 0.00067222 -0.00258341 0.0123092 0.00511187 -0.00976413 
-0.189984 0.134118 2.34446e-06 0.0885232 0.0374389 -8.59364e-14 0.103359 -0.0345487 1.2643e-06 
0.0704543 0.0763042 -0.0176058 -0.146041 0.0940107 0.0728137 -0.00621701 0.0272183 -0.0746659 
0.00191642 -0.00369948 -0.00041841 0.0178705 0.0048187 -9.57166e-14 -0.0889197 0.048691 0.0125792 
0.00235407 -0.00549329 5.46172e-13 0.0378245 0.0043201 -2.38234e-09 0.0196302 0.0237009 0.0995223 
0.237765 -0.0239923 0.00380356 -0.0119012 0.00600932 -0.000160001 -0.0284634 -0.0114458 -4.50705e-07 
-0.0474628 0.0283992 0.00025959 -0.0301719 0.0134503 -7.22683e-05 0.00598701 0.00977517 0.00150285 
-0.0152425 -0.053342 -0.000827263 0.00633635 -0.00144205 -0.000102359 -0.00338911 0.0133886 -1.61394e-10 
0.000524356 0.0453491 1.75863e-05 -0.0111808 -0.00464937 -3.26805e-10 -0.0122589 0.00727775 8.35719e-07 
-0.0218607 0.0250629 -5.25739e-12 -3.35067e-05 -0.00547808 1.92663e-09 0.0237146 0.0112879 3.25881e-12 
0.0468889 -0.0467819 0.00118652 0.111459 0.0141163 0.107743 -0.0580655 0.0918433 -0.000533781 
0.0285584 -0.0780053 -6.54835e-13 -0.0504613 0.0273652 0.131392 0.00130384 -0.000880155 -0.0130314 
-0.0169466 -3.85308e-05 -0.0190488 0.0120476 -0.0244413 -1.98985e-13 0.0389761 0.0314116 5.48628e-12 
-0.0185359 0.0181662 2.53054e-06 -0.000441314 0.042928 1.85718e-05 -0.000434495 0.0224716 -0.013633 
0.00292251 0.00278702 0.0089488 -0.00699781 0.00585994 6.59255e-05 -0.0156283 0.0203646 -7.55764e-05 
0.0135894 0.0370848 -6.14375e-05 0.0180591 -0.0205539 -1.23338e-05 0.0773977 -0.0797308 -8.62662e-14 
0.0498411 -0.0197174 -0.00490992 -0.106687 0.144181 -0.000242387 0.0681621 -0.00345698 5.45815e-05 
0.00597701 -0.0159181 1.74622e-07 -0.0231304 0.011863 -5.11597e-05 -0.0653976 0.0364826 0.0013124 
-0.0146901 -0.0233846 -0.00174779 0.0213902 -0.0274304 -0.0115493 -0.00204693 -0.00566565 0.00107896 
0.0235963 0.0275447 -1.49148e-13 -0.493181 0.105011 0.190672 -0.00628734 0.0190742 -0.000350012 
-0.00132266 0.0307448 -0.00058056 -0.00195214 0.00265226 -0.000461372 -0.00443741 -0.00654128 -2.63873e-06 
-0.0968846 0.011741 1.46741e-05 0.0427328 0.00900847 0.00687995 -0.0205747 -0.0162203 0.050577 
0.158331 0.148568 -4.02019e-13 0.0446811 -0.0322664 1.03697e-13 0.0129638 0.0894805 4.06014e-05 
-0.0060182 0.0254528 -1.68933e-05 0.0419901 0.00436929 0.00722062 0.0418219 -0.0470286 -0.0147057 
-0.00226454 -0.0229955 -2.12358e-13 0.000914522 -0.00132312 -0.000711929 -0.044288 -0.0363691 -0.0733667 
0.015313 0.0800811 -0.0178122 0.034768 0.0335947 -0.0965002 -0.0293589 -0.0476013 0.000441631 
0.0134053 0.0324971 1.15929e-09 -0.0273804 0.0448612 -4.62759e-13 0.0200598 -0.0400777 -3.17861e-07 
0.0820985 -0.0979928 -1.30091e-06 0.0314554 -0.00707263 -0.0208717 0.00870529 0.00538057 5.24962e-13 
0.0105884 0.0295248 5.46172e-13 -0.0188337 -0.0426906 4.56538e-11 -0.0296556 -0.0280821 -6.25092e-08 
-0.0216181 -0.0722235 0.0132275 -0.148459 -0.0470985 -0.0294105 0.00389833 -0.0491686 -1.14565e-10 
0.0348121 0.058517 -3.72126e-06 0.00746132 0.0344737 1.15015e-12 0.0550708 0.0696278 1.95961e-13 
-0.239906 0.042414 -0.000238529 -0.0402838 -0.100242 -4.82578e-06 -0.00907967 -0.0674571 2.01426e-07 
0.0308037 -0.00196008 0.000181772 0.0340166 -0.0033753 0.000253952 0.0135723 0.0198429 -2.12372e-13 
0.00441631 0.0114059 -4.03648e-13 0.0638849 -0.0716011 -0.134833 -0.00801507 -0.0331082 0.00270675 
-0.00179534 0.00374466 -0.000463263 -0.181404 -0.0106657 0.00954277 -0.00118784 -0.000572152 -8.59372e-14 
-0.0150086 -0.0496842 -4.16373e-07 0.053354 -0.0746447 0.0231511 -0.0353007 -0.0503997 3.56539e-13 
0.0344647 -0.157316 0.0896962 0.0507429 -0.0146082 -0.0309226 -0.0439208 -0.0126096 -0.00364289 
-0.00850937 0.00407863 -0.00110858 -0.0150002 -0.001602 0.00162021 -0.0358399 -0.0160785 -0.000297936 
0.0372254 -0.0916093 -5.28414e-13 0.104476 -0.11703 -2.13476e-13 0.133892 -0.0600431 -0.0442208 
-0.0566722 -0.0286352 -5.45979e-05 -0.113515 -0.0490504 -0.165542 -0.0424161 -0.16595 0.0144875 
-0.0324968 -0.165872 0.157987 -0.0484095 -0.178692 -9.42967e-06 -0.0404962 -0.0963878 -7.02439e-05 
-0.00897815 -0.00328854 2.21551e-05 0.0893246 -0.0692333 0.00032213 0.0876901 -0.0854338 -0.0489347 
0.0842704 0.00739932 -5.28414e-13 -0.000350152 -0.00212508 0.033273 0.00945952 -0.0200703 0.00128535 
-0.0279989 -0.0200256 -8.35163e-08 0.00188962 -0.0049482 -1.02826e-09 -0.00720216 0.0124537 -3.238e-10 
0.0143346 -0.121805 -0.0147273 0.0539247 -0.0355336 -0.00308036 -0.0156019 -0.0194707 -0.000235705 
-0.00428927 -0.00907467 2.86856e-05 -0.0368513 -0.0150836 0.00351569 0.11903 0.0193777 -0.0703543 
0.036286 -0.203695 -0.0833525 -0.0437074 -0.458599 0.352555 0.0217893 0.00218047 0.0611213 
0.129518 -0.0254963 -0.0369837 -0.00936579 -0.00756088 5.10226e-15 -0.00190504 -0.0259937 -6.35275e-05 
-0.00270227 -0.00261061 -0.00173455 -0.0200369 0.00669591 -0.00527646 0.00375219 -0.0159155 0.000141438 
-0.0151731 -0.0104751 -0.0201894 -0.0134202 -0.0102288 2.70517e-08 9.41577e-05 -0.00186997 -1.49893e-08 
0.00897894 -0.00192166 -2.30381e-07 0.137515 -0.158993 0.0991042 0.0118603 -0.0173826 1.522e-06 
0.0420604 -0.0280232 0.000119064 0.0288287 -0.0080512 -0.0002248 0.0509388 -0.031278 0.00222762 
-0.000897584 -0.00619099 5.52186e-06 -0.0212925 -0.00551134 0.000217323 0.0406067 0.0825556 -1.01184e-09 
0.0035562 -0.031269 -6.98173e-14 0.0640997 -0.0222135 1.66907e-13 -0.062814 -0.119421 0.0280319 
0.0181783 -0.0586423 -2.91141e-08 0.00934603 0.0089898 0.0260979 -0.124177 -0.0490655 0.201751 
0.0875773 -0.015738 -1.94925e-06 0.0224452 -0.0294727 0.024486 0.0441475 -0.00584298 -0.0170767 
0.0158107 -0.0258059 0.000102843 0.000542391 -0.0171622 -0.00974702 -0.0217557 -0.00216793 -0.000138148 
-0.00728201 -0.035563 3.63285e-13 0.0715494 -0.0353392 2.28182e-08 -0.0535781 0.181424 0.185659 
0.277247 -0.298014 -0.0891264 0.0567662 -0.0348663 0.059198 0.0598569 0.0629464 0.00407791 
0.103742 0.042944 0.0334623 0.0648882 -0.0044896 5.38442e-08 -0.00404212 0.0140559 -2.34911e-05 
-0.00340315 -0.0181214 0.00112347 -0.00294269 -0.0213491 0.000558204 -0.01058 -0.00306924 -0.00429946 
-0.00585052 0.00207323 -0.0110047 0.010317 -0.0144786 7.58399e-07 -0.00322558 -0.0410386 0.00357185 
-0.144301 0.0794405 0.186696 0.0364068 -0.0152033 0.00082289 0.0238386 -0.0132462 -0.00584144 
-0.00142734 -0.00513443 -0.000126689 -0.00801455 -0.003631 -0.000228625 0.00397548 -0.00186955 4.95461e-10 
0.0208152 -0.00213022 -5.91624e-13 -0.0152079 -0.0628834 3.61191e-10 -0.0225488 -0.0423919 -0.00278033 
-0.00371274 -0.0753676 8.11252e-06 -0.0288466 -0.0175309 -0.189662 0.00465983 -0.00893829 4.01152e-05 
-0.0114909 0.00640605 -0.000641335 0.000490061 0.0157809 -0.000424181 0.00583836 0.00208893 -1.04132e-10 
-0.00191504 -0.0313199 9.0973e-05 -0.00213043 -0.0215824 -0.000244118 0.00153581 -0.0111638 0.000562189 
-0.0031567 -0.0193434 0.000320568 -0.0438515 -0.00509947 0.000583776 -0.0129739 -0.00130271 -0.00117576 
-0.0222726 -0.0174977 -6.54859e-13 -0.0173557 -0.0140104 -1.48892e-13 -0.0327065 -0.0082784 0.000394218 
0.0268141 -0.00255084 0.013875 0.0210747 0.0048673 0.000811097 -0.0876857 0.00141748 -0.0282739 
-0.105418 -0.0381259 -0.00154499 -0.0355877 0.00466131 0.0169501 -0.0184768 0.00282792 -0.000138864 
-0.0191049 -0.00248369 -0.000557133 -0.0167353 -0.00294139 5.77808e-05 -0.0122905 0.00113391 -0.00129433 
-0.070469 0.00292881 -0.000472264 -0.0594976 0.00705336 0.000105989 -0.0293981 0.00368478 -0.00249582 
-0.0210722 0.00965142 -0.000217328 0.0121162 -0.000294414 -0.0148236 -0.116758 0.0674529 0.0142221 
0.0638931 0.0598092 -0.0344848 -0.0193517 0.0282305 -0.069369 0.100594 -0.139926 -0.194218 
0.0141976 0.0347682 -0.0870314 0.0629381 -0.0302554 -0.0232943 -0.0762385 -0.00183058 -0.0324903 
-0.232136 -0.019279 -0.258564 0.0848234 -0.0592063 -0.026131 -0.0891272 -0.0249109 -0.11943 
0.28334 -0.214977 0.0956594 0.0945529 -0.247008 0.300877 -0.0149309 0.0877073 -0.044867 
-0.0646175 -0.0767839 0.152005 -0.0185474 0.0781937 -0.0159634 -0.0359193 0.00547205 0.0187522 
0.0426806 0.161351 -0.0510985 -0.0156349 0.0649725 0.140875 0.0678263 -0.0537372 -0.00667314 
0.257984 0.0928529 -0.0720583 -0.371215 -0.0269956 0.236053 0.0247367 0.129032 -0.0382213 
0.0130905 0.0042919 -0.00808838 0.181384 0.0148223 -0.0730063 0.0460352 0.0730137 -0.0839225 
-0.0884802 -0.0750947 0.184413 -0.0491096 -0.0833166 -0.0168359 -0.0399243 0.0216677 -0.147329 
0.0444323 0.0116319 -0.0260142 -0.266573 -0.0891691 -0.217697 -0.0441598 0.00406379 -0.0251598 