# vtk DataFile Version 4.0
Generated by LIGGGHTS
ASCII
DATASET POLYDATA
POINTS 207 float
-0.0139145 0.0294457 0.0828942 0.017453 -0.0376727 0.0872648 0.0140448 -0.0298117 0.0876841 
0.0416015 -0.00603304 0.0856154 -0.0443333 0.0123569 0.08324 -0.0015658 0.0217218 0.0845064 
0.00531137 0.0202999 0.085337 -0.0226086 0.0277816 0.0841586 -0.0158352 -0.0285597 0.0908138 
-0.000398206 -0.0230339 0.0915047 -0.0166788 -0.00874889 0.0849291 0.00928511 0.0117846 0.090268 
-0.018293 0.0213137 0.0865127 0.0371595 0.0250115 0.0852536 0.0367547 0.0260048 0.090462 
-0.027922 0.0326549 0.090449 0.024301 0.0299108 0.0916713 0.0186934 0.0356211 0.0902214 
-0.0127018 0.0383043 0.0905884 0.0166814 0.0405036 0.0914677 0.0156724 -0.0417724 0.0940837 
-0.00663153 -0.028173 0.0936794 -0.00314877 -0.0166089 0.0822929 -0.0202346 -0.0130763 0.0820732 
-0.00895746 -0.0153521 0.081307 -0.000871569 -0.00864942 0.0830698 -0.0308467 0.0130169 0.0829233 
-0.0118546 0.0121408 0.0925163 -0.00544668 0.0138224 0.0879481 0.0280893 0.0208762 0.095394 
-0.0119164 0.0225097 0.0890896 -0.00444145 0.0354515 0.0950952 0.00150554 0.0413543 0.0952916 
0.000513327 -0.037234 0.0962754 0.00956954 -0.0268546 0.0871217 0.00469435 -0.0167627 0.0819191 
-0.0286104 -0.0120501 0.0971652 -0.0292834 0.0168708 0.0819593 -0.0291094 0.0288228 0.0979563 
-0.0219742 0.0355612 0.0854589 -0.0219668 -0.0387288 0.0998632 0.00267225 -0.0311462 0.0984153 
0.00768048 -0.0305857 0.0858015 -0.0253834 -0.0255391 0.0987584 -0.0254941 -0.0207414 0.0993951 
-0.0409717 0.017325 0.0954179 -0.00921279 0.0293501 0.0846547 -0.00554186 0.0426421 0.0900411 
-0.00215446 0.00589038 0.0849964 0.0120073 -0.0233996 0.0907612 -0.000486284 -0.00616492 0.0892318 
-0.0290661 0.0158254 0.0874866 -0.0130541 -0.0227861 0.0967555 -0.0198292 -0.0126789 0.0915122 
-0.0487538 -0.00109203 0.104139 -0.00795712 0.0399253 0.0954385 0.0336244 -0.0185083 0.0976713 
-0.017327 -0.0113461 0.0957996 -0.0280941 -0.0368225 0.109895 0.0260496 0.0126324 0.108721 
-0.00528182 -0.0451189 0.110987 -0.0465168 -0.0140301 0.11446 -0.0179679 -0.0221794 0.107664 
-0.00827141 -0.0127553 0.109267 -0.0244408 0.0174531 0.106769 -0.00603342 0.0215828 0.107742 
-0.00608595 -0.031119 0.109693 -0.0425915 -0.0243814 0.124789 -0.0314694 -0.0134405 0.109687 
-0.0237248 -0.0145765 0.115381 -0.0051783 0.0279972 0.115654 0.00618712 -0.016273 0.119157 
0.0114037 -0.0394429 0.12392 -0.0166542 -0.0102201 0.133964 0.0035051 0.020701 0.123079 
-0.0242227 0.0349177 0.120789 0.0435628 0.0125918 0.126162 0.00956794 0.022498 0.127149 
-0.0357271 0.000411098 0.135298 -0.000339489 -0.0442575 0.139603 -0.00676178 -0.041834 0.132568 
-0.000992854 -0.0338985 0.133934 -0.0274176 -0.0328806 0.1316 0.0300866 0.0304163 0.133777 
0.0274407 -0.0177667 0.136181 0.0209801 0.0386141 0.135356 -0.0244543 -0.0285598 0.140613 
0.00758188 -0.0317734 0.142392 -0.000925158 0.00694521 0.143067 -0.0242922 -0.0328428 0.148496 
0.0319689 -0.0241855 0.146056 0.0469977 -0.0017857 0.152942 -0.0377054 -0.00896513 0.152703 
0.0458621 -0.0021745 0.158294 -0.0250557 0.000480015 0.152736 -0.029508 0.0202128 0.151902 
0.043361 0.0230165 0.156699 0.0268127 -0.0340489 0.156993 0.0447327 -0.0216664 0.163855 
-0.00751934 0.0150644 0.166359 0.0388867 0.0251989 0.166473 0.0256186 -0.0388969 0.169331 
-0.0337087 -0.0108306 0.162861 -0.034802 -0.00453532 0.161017 -0.0228421 0.00576321 0.161221 
0.00195138 0.0127399 0.16124 0.00705045 0.0287968 0.161337 -0.00310456 -0.00238127 0.167016 
-0.0283468 0.0166897 0.167846 -0.0134176 0.0265745 0.167063 -0.0314258 0.00163686 0.168345 
-0.0213418 0.0220867 0.170933 -0.00985171 0.0212243 0.169093 -0.00313803 0.0293374 0.171655 
-0.00345523 0.0358281 0.168159 -0.000109506 0.0394086 0.170366 0.00410449 -0.0317165 0.175171 
0.00375701 0.0287561 0.179117 0.0394187 0.0274315 0.181984 0.0200739 0.0364787 0.18121 
0.00873839 0.0259438 0.185137 0.0376327 -0.017378 0.179165 -0.0169054 0.00356028 0.187112 
-0.0228585 0.00768131 0.181822 -0.0297172 0.0230678 0.181173 0.0262197 0.0338431 0.182064 
0.0305953 -0.0311674 0.194376 -0.0201079 -0.0191818 0.183768 -0.0260928 -0.00581085 0.183618 
0.0417666 0.0100505 0.192448 0.0156153 0.0208133 0.187757 0.0232953 0.0244181 0.190965 
0.0237324 -0.0253744 0.197302 0.0329786 -0.0145468 0.197101 -0.0399526 -0.00760015 0.188155 
0.0183842 0.0240057 0.190657 0.00241883 0.00118387 0.201174 -0.00461067 0.0201597 0.19226 
0.0274732 0.025213 0.202374 0.0238941 -0.0338409 0.194031 -0.0107564 0.00847008 0.196144 
0.04126 0.0149672 0.195437 0.0138233 0.0167179 0.19443 -0.00744666 0.00531134 0.198983 
0.017494 0.0195812 0.198656 -0.00783351 0.0307613 0.1995 0.0195549 0.0328932 0.19812 
0.0115619 -0.00754522 0.204765 0.00624051 0.0319942 0.204124 -0.0168101 -0.0181967 0.208149 
-0.0397731 0.00100133 0.207311 -0.0089864 0.0176088 0.205668 0.0394013 0.0195728 0.208376 
0.00582446 -0.0167578 0.212096 -0.0321586 -0.00320316 0.211393 0.0437487 -0.00392445 0.208856 
-0.0357082 0.000521783 0.209294 0.00525585 0.00154901 0.209972 0.0267592 0.00599371 0.209283 
0.0380996 0.0106842 0.214651 0.0352803 0.0157496 0.214664 -0.0205556 -0.021094 0.217234 
-0.0158729 -0.0189529 0.218517 0.0151284 -5.99506e-05 0.217059 0.00950334 -0.0346704 0.22025 
0.0231629 -0.0135729 0.221595 -0.0237446 -0.00322908 0.223235 -0.0273013 0.0141419 0.222206 
-0.0102763 0.0191868 0.220012 0.0100235 -0.0296563 0.226202 -0.00888824 0.0379912 0.225583 
-0.0109201 0.0432795 0.226682 -0.0394632 -0.0190635 0.228267 0.0106651 -0.00762351 0.230592 
0.0149248 -0.00532292 0.228873 0.0399749 0.00438302 0.231112 -0.00312493 0.00839474 0.228908 
0.0343513 0.00656387 0.228574 0.006248 0.0315313 0.229945 -0.0158798 -0.039925 0.23422 
-0.0227629 0.0205469 0.231633 0.039025 0.0219134 0.234559 -0.0224629 -0.0228677 0.235738 
0.0028041 -0.024122 0.237806 -0.0101005 -0.0213979 0.236717 -0.0152252 0.00696465 0.236858 
-0.0379268 -0.016612 0.241209 -0.00552842 0.0269783 0.241635 0.0153275 -0.0422684 0.2459 
0.0219946 -0.0376763 0.243064 0.0122082 -0.0295271 0.244748 -0.0036853 -0.0168807 0.24307 
-0.00658024 -0.00155355 0.242578 -0.0399829 0.00344261 0.244913 0.0383794 0.00255695 0.244507 
0.0350186 0.0220146 0.245822 -0.0169694 -0.0346002 0.247292 -0.0171641 -0.0262288 0.248557 
-0.00621226 -0.0262392 0.247576 0.0232679 -0.00383425 0.248811 -0.036983 0.00451791 0.249169 
0.0178169 0.0333268 0.248931 0.0374607 0.0145023 0.250789 -0.00179404 0.0285702 0.251286 
0.00405577 0.0277489 0.253289 -0.0155922 -0.0205517 0.255015 0.0239905 0.0252732 0.253639 

VERTICES 207 414
1 0 
1 1 
1 2 
1 3 
1 4 
1 5 
1 6 
1 7 
1 8 
1 9 
1 10 
1 11 
1 12 
1 13 
1 14 
1 15 
1 16 
1 17 
1 18 
1 19 
1 20 
1 21 
1 22 
1 23 
1 24 
1 25 
1 26 
1 27 
1 28 
1 29 
1 30 
1 31 
1 32 
1 33 
1 34 
1 35 
1 36 
1 37 
1 38 
1 39 
1 40 
1 41 
1 42 
1 43 
1 44 
1 45 
1 46 
1 47 
1 48 
1 49 
1 50 
1 51 
1 52 
1 53 
1 54 
1 55 
1 56 
1 57 
1 58 
1 59 
1 60 
1 61 
1 62 
1 63 
1 64 
1 65 
1 66 
1 67 
1 68 
1 69 
1 70 
1 71 
1 72 
1 73 
1 74 
1 75 
1 76 
1 77 
1 78 
1 79 
1 80 
1 81 
1 82 
1 83 
1 84 
1 85 
1 86 
1 87 
1 88 
1 89 
1 90 
1 91 
1 92 
1 93 
1 94 
1 95 
1 96 
1 97 
1 98 
1 99 
1 100 
1 101 
1 102 
1 103 
1 104 
1 105 
1 106 
1 107 
1 108 
1 109 
1 110 
1 111 
1 112 
1 113 
1 114 
1 115 
1 116 
1 117 
1 118 
1 119 
1 120 
1 121 
1 122 
1 123 
1 124 
1 125 
1 126 
1 127 
1 128 
1 129 
1 130 
1 131 
1 132 
1 133 
1 134 
1 135 
1 136 
1 137 
1 138 
1 139 
1 140 
1 141 
1 142 
1 143 
1 144 
1 145 
1 146 
1 147 
1 148 
1 149 
1 150 
1 151 
1 152 
1 153 
1 154 
1 155 
1 156 
1 157 
1 158 
1 159 
1 160 
1 161 
1 162 
1 163 
1 164 
1 165 
1 166 
1 167 
1 168 
1 169 
1 170 
1 171 
1 172 
1 173 
1 174 
1 175 
1 176 
1 177 
1 178 
1 179 
1 180 
1 181 
1 182 
1 183 
1 184 
1 185 
1 186 
1 187 
1 188 
1 189 
1 190 
1 191 
1 192 
1 193 
1 194 
1 195 
1 196 
1 197 
1 198 
1 199 
1 200 
1 201 
1 202 
1 203 
1 204 
1 205 
1 206 

POINT_DATA 207
FIELD FieldData 7
id 1 207 int
47 46 50 43 49 3 40 41 39 
33 36 14 5 42 10 29 37 31 
34 27 19 30 64 58 63 59 54 
22 28 23 20 25 16 24 18 53 
12 57 8 56 2 6 51 9 4 
1 52 7 55 76 60 61 45 70 
38 68 74 72 44 26 11 62 77 
84 65 71 90 48 88 89 85 80 
87 35 83 81 82 78 15 21 96 
100 94 103 95 99 93 92 101 113 
98 13 32 69 105 107 102 110 86 
17 73 67 115 108 116 111 106 122 
125 117 126 121 120 127 123 118 119 
66 91 97 104 128 79 133 135 142 
109 138 132 75 112 129 124 140 134 
131 139 141 114 137 146 130 136 153 
155 154 147 151 152 149 148 150 143 
163 168 145 144 156 162 160 158 164 
161 165 166 157 169 159 167 173 177 
170 178 180 172 179 175 174 181 171 
176 186 191 182 189 194 183 190 207 
187 184 193 188 185 192 201 199 202 
204 203 197 198 205 196 206 195 200 

type 1 207 int
1 1 1 1 1 1 1 1 1 
1 1 1 1 1 1 1 1 1 
1 1 1 1 1 1 1 1 1 
1 1 1 1 1 1 1 1 1 
1 1 1 1 1 1 1 1 1 
1 1 1 1 1 1 1 1 1 
1 1 1 1 1 1 1 1 1 
1 1 1 1 1 1 1 1 1 
1 1 1 1 1 1 1 1 1 
1 1 1 1 1 1 1 1 1 
1 1 1 1 1 1 1 1 1 
1 1 1 1 1 1 1 1 1 
1 1 1 1 1 1 1 1 1 
1 1 1 1 1 1 1 1 1 
1 1 1 1 1 1 1 1 1 
1 1 1 1 1 1 1 1 1 
1 1 1 1 1 1 1 1 1 
1 1 1 1 1 1 1 1 1 
1 1 1 1 1 1 1 1 1 
1 1 1 1 1 1 1 1 1 
1 1 1 1 1 1 1 1 1 
1 1 1 1 1 1 1 1 1 
1 1 1 1 1 1 1 1 1 

i 3 207 int
0 0 0 0 0 0 0 0 0 
0 0 0 0 0 0 0 0 0 
0 0 0 0 0 0 0 0 0 
0 0 0 0 0 0 0 0 0 
0 0 0 0 0 0 0 0 0 
0 0 0 0 0 0 0 0 0 
0 0 0 0 0 0 0 0 0 
0 0 0 0 0 0 0 0 0 
0 0 0 0 0 0 0 0 0 
0 0 0 0 0 0 0 0 0 
0 0 0 0 0 0 0 0 0 
0 0 0 0 0 0 0 0 0 
0 0 0 0 0 0 0 0 0 
0 0 0 0 0 0 0 0 0 
0 0 0 0 0 0 0 0 0 
0 0 0 0 0 0 0 0 0 
0 0 0 0 0 0 0 0 0 
0 0 0 0 0 0 0 0 0 
0 0 0 0 0 0 0 0 0 
0 0 0 0 0 0 0 0 0 
0 0 0 0 0 0 0 0 0 
0 0 0 0 0 0 0 0 0 
0 0 0 0 0 0 0 0 0 
0 0 0 0 0 0 0 0 0 
0 0 0 0 0 0 0 0 0 
0 0 0 0 0 0 0 0 0 
0 0 0 0 0 0 0 0 0 
0 0 0 0 0 0 0 0 0 
0 0 0 0 0 0 0 0 0 
0 0 0 0 0 0 0 0 0 
0 0 0 0 0 0 0 0 0 
0 0 0 0 0 0 0 0 0 
0 0 0 0 0 0 0 0 0 
0 0 0 0 0 0 0 0 0 
0 0 0 0 0 0 0 0 0 
0 0 0 0 0 0 0 0 0 
0 0 0 0 0 0 0 0 0 
0 0 0 0 0 0 0 0 0 
0 0 0 0 0 0 0 0 0 
0 0 0 0 0 0 0 0 0 
0 0 0 0 0 0 0 0 0 
0 0 0 0 0 0 0 0 0 
0 0 0 0 0 0 0 0 0 
0 0 0 0 0 0 0 0 0 
0 0 0 0 0 0 0 0 0 
0 0 0 0 0 0 0 0 0 
0 0 0 0 0 0 0 0 0 
0 0 0 0 0 0 0 0 0 
0 0 0 0 0 0 0 0 0 
0 0 0 0 0 0 0 0 0 
0 0 0 0 0 0 0 0 0 
0 0 0 0 0 0 0 0 0 
0 0 0 0 0 0 0 0 0 
0 0 0 0 0 0 0 0 0 
0 0 0 0 0 0 0 0 0 
0 0 0 0 0 0 0 0 0 
0 0 0 0 0 0 0 0 0 
0 0 0 0 0 0 0 0 0 
0 0 0 0 0 0 0 0 0 
0 0 0 0 0 0 0 0 0 
0 0 0 0 0 0 0 0 0 
0 0 0 0 0 0 0 0 0 
0 0 0 0 0 0 0 0 0 
0 0 0 0 0 0 0 0 0 
0 0 0 0 0 0 0 0 0 
0 0 0 0 0 0 0 0 0 
0 0 0 0 0 0 0 0 0 
0 0 0 0 0 0 0 0 0 
0 0 0 0 0 0 0 0 0 

v 3 207 double
-0.956367 0.0611312 -0.987642 0 0 0.50365 -0.00242069 -0.067788 0.511336 
0 0 0.552999 0.365295 0.0572667 0.432491 -0.0742344 0.190936 0.071075 
0 0 0.562896 -0.0184977 -0.226843 0.150925 0 0 0.4293 
0 0 0.413216 -0.435093 0.372084 -0.337914 0.294542 -0.145669 0.135918 
-0.402563 0.100613 -0.245741 0 0 0.561387 0.371621 -0.19786 0.275091 
0 0 0.459297 0 0 0.409383 -0.154885 0.0824643 0.266442 
0 0 0.434802 0 0 0.443594 0 0 0.346406 
0 0 0.391813 0 0 0.593148 0.0136316 -0.0653419 0.572488 
0.466074 -0.398579 0.386673 0 0 0.581157 0.348026 -0.148082 0.495916 
-0.20182 -0.127327 0.051118 -0.0102986 -0.136665 -0.298622 0 0 0.307881 
-0.238546 -0.501256 -0.661442 0 0 0.319408 0 0 0.348677 
0 0 0.278689 0.368314 -0.762423 -0.81954 -0.087601 0.181338 0.681103 
0 0 0.244273 0 0 0.598261 0 0 0.212598 
0.0856373 1.0502 -0.233903 0 0 0.17858 0 0 0.194098 
-0.0912369 -0.170939 -1.80533 0 0 0.177485 0 0 0.18825 
-0.229396 0.0976061 -0.187427 0.247399 0.126019 -1.56217 0.344799 0.387852 -2.00095 
0 0 -2.06512 0 0 -2.03755 0 0 -2.04491 
0 0 -2.05325 -0.182859 0.0383856 -1.71835 0 0 -2.03392 
0.0964408 -0.152429 -0.720765 -0.0744765 -0.0837761 -1.55436 0 0 -2.004 
0 0 -2.01313 -0.0971062 -0.675225 -0.892606 0.714312 0.182647 -0.807877 
-0.00209688 0.153099 -1.23875 0.235267 -0.0270441 -0.438668 0 0 -1.95446 
0 0 -1.94642 0 0 -1.95898 0 0 -1.95407 
0 0 -1.94426 0.270367 -0.104316 -0.255204 0 0 -1.94426 
0 0 -1.91532 0 0 -1.91395 0 0 -1.8959 
0 0 -1.87108 0.118144 -0.170237 -0.361431 0 0 -1.87549 
0 0 -1.88746 0.0736568 0.148276 -1.7331 0 0 -1.85411 
-0.592858 -0.00259099 -0.769137 -0.189392 0.131474 -0.855379 0 0 -1.82517 
0 0 -1.81781 0 0 -1.83037 0 0 -1.81869 
0 0 -1.80565 0 0 -1.81016 0 0 -1.78142 
0 0 -1.77161 0 0 -1.76788 0 0 -1.73747 
0 0 -1.7512 0.164958 -0.11648 -1.10268 -0.457779 -0.244695 -1.4723 
-0.147465 -0.0304358 -0.785465 -0.011568 0.0455392 -1.59664 0 0 -1.71814 
-0.157109 0.0125574 -0.811843 0 0 -1.68881 -0.0761073 0.00691068 -0.60483 
-0.225205 0.129481 -0.90867 -0.195648 0.0232166 -0.60689 -0.256497 -0.00789195 -0.605841 
0 0 -1.65438 0 0 -1.66527 0 0 -1.66409 
0 0 -1.66399 0 0 -1.6634 0 0 -1.62956 
0 0 -1.62455 0 0 -1.62926 0 0 -1.62151 
0 0 -1.60582 0 0 -1.617 0 0 -1.6014 
0 0 -1.62269 0 0 -1.60925 0 0 -1.57972 
-0.254351 0.408845 -0.889012 -0.203356 -0.000574337 -0.367555 0.0103772 0.642835 -0.757076 
-0.170986 0.439352 -0.690154 0 0 -1.55471 -0.552817 0.0390494 -0.626666 
0 0 -1.53783 0 0 -1.54195 0 0 -1.53626 
0.223267 -0.635169 -0.457634 0 0 -1.52537 0 0 -1.52636 
0.261868 0.107409 -0.547601 -0.311865 -0.138511 -1.31539 0.148739 0.421578 -0.821726 
0.0781923 -0.632452 -0.402562 0.381026 -0.446709 -0.542563 0 0 -1.49693 
0.0417362 0.134111 -1.34136 -0.70119 0.0558865 -0.304908 0 0 -1.46975 
0.168266 0.548963 -0.253834 0 0 -1.45788 0 0 -1.44356 
0 0 -1.44837 -0.133641 0.304124 -0.944507 0 0 -1.42414 
0 0 -1.42639 0 0 -1.4206 0 0 -1.43012 
-0.480971 -0.418288 -0.0596011 0 0 -1.38833 0 0 -1.35959 
0 0 -1.36557 0 0 -1.37734 0 0 -1.35792 
0 0 -1.33074 0 0 -1.33594 0 0 -1.35448 
0 0 -1.35125 0 0 -1.34634 0 0 -1.35135 
0 0 -1.31181 0 0 -1.31171 0 0 -1.29239 
0 0 -1.28258 0 0 -1.29366 0 0 -1.26924 
0 0 -1.25884 0 0 -1.24599 0 0 -1.25403 
0 0 -1.2711 0 0 -1.22234 0 0 -1.22735 
0 0 -1.21852 0 0 -1.20567 0 0 -1.18664 
0 0 -1.20076 0 0 -1.18232 0 0 -1.20047 
0 0 -1.20321 0 0 -1.19193 0 0 -1.15622 
0 0 -1.178 0 0 -1.15338 0 0 -1.14328 
0 0 -1.12542 0 0 -1.13484 0 0 -1.13366 
0 0 -1.0953 0 0 -1.09148 0 0 -1.05253 
0 0 -1.07863 0 0 -1.06323 0 0 -1.07853 
0 0 -1.08304 0 0 -1.06166 0 0 -1.06538 
0 0 -1.05322 0 0 -1.03949 0 0 -1.02742 
0 0 -1.03674 0 0 -1.02497 0 0 -1.02153 
0 0 -1.02389 0 0 -1.00594 0 0 -1.00103 
0 -0 -1 0 -0 -1 0 -0 -1 

f 3 207 double
0 0 -0.000346714 0 0 -0.000346714 0 0 -0.000346714 
0 0 -0.00160516 0 0 -0.000346714 0 0 -0.00160516 
0 0 -0.00160516 0 0 -0.00160516 0 0 -0.000346714 
0 0 -0.000346714 0 0 -0.000346714 0 0 -0.00160516 
0 0 -0.00160516 0 0 -0.00160516 0 0 -0.000346714 
0 0 -0.00160516 0 0 -0.000346714 0 0 -0.00160516 
0 0 -0.000346714 0 0 -0.00160516 0 0 -0.000346714 
0 0 -0.00160516 0 0 -0.000346714 0 0 -0.000346714 
0 0 -0.000346714 0 0 -0.000346714 0 0 -0.00160516 
0 0 -0.000346714 0 0 -0.00160516 0 0 -0.000346714 
0 0 -0.000346714 0 0 -0.000346714 0 0 -0.00160516 
0 0 -0.000346714 0 0 -0.000346714 0.00109431 -0.00226527 0.226564 
0 0 -0.000346714 0 0 -0.000346714 0 0 -0.000346714 
0 0 -0.000346714 0 0 -0.00160516 0 0 -0.000346714 
0 0 -0.000346714 0 0 -0.000346714 0 0 -0.00160516 
0 0 -0.00160516 0 0 -0.00160516 0 0 -0.000346714 
0 0 -0.00160516 0 0 -0.000346714 0 0 -0.000346714 
0 0 -0.000346714 0 0 -0.000346714 0 0 -0.000346714 
0 0 -0.000346714 0 0 -0.00160516 0 0 -0.000346714 
0 0 -0.000346714 0 0 -0.000346714 0 0 -0.000346714 
0 0 -0.000346714 0 0 -0.000346714 0 0 -0.000346714 
0 0 -0.000346714 0 0 -0.00160516 0 0 -0.000346714 
0 0 -0.000346714 0 0 -0.000346714 0 0 -0.000346714 
0 0 -0.000346714 0 0 -0.000346714 0 0 -0.00160516 
0 0 -0.000346714 0 0 -0.000346714 0 0 -0.000346714 
0 0 -0.00160516 0 0 -0.000346714 0 0 -0.00160516 
0 0 -0.00160516 0 0 -0.000346714 0 0 -0.000346714 
0 0 -0.000346714 0 0 -0.00160516 0 0 -0.000346714 
0 0 -0.000346714 0 0 -0.000346714 0 0 -0.00160516 
0 0 -0.00160516 0 0 -0.000346714 0 0 -0.000346714 
0 0 -0.000346714 0 0 -0.000346714 0 0 -0.000346714 
0 0 -0.000346714 0 0 -0.00160516 0 0 -0.00160516 
0 0 -0.000346714 0 0 -0.000346714 0 0 -0.000346714 
0 0 -0.00160516 0 0 -0.000346714 0 0 -0.00160516 
0 0 -0.000346714 0 0 -0.000346714 0 0 -0.000346714 
0 0 -0.000346714 0 0 -0.00160516 0 0 -0.000346714 
0 0 -0.000346714 0 0 -0.00160516 0 0 -0.000346714 
0 0 -0.00160516 0 0 -0.00160516 0 0 -0.000346714 
0 0 -0.000346714 0 0 -0.00160516 0 0 -0.00160516 
0 0 -0.00160516 0 0 -0.00160516 0 0 -0.000346714 
0 0 -0.00160516 0 0 -0.000346714 0 0 -0.00160516 
0 0 -0.00160516 0 0 -0.000346714 0 0 -0.000346714 
0 0 -0.000346714 0 0 -0.000346714 0 0 -0.00160516 
0 0 -0.000346714 0 0 -0.000346714 0 0 -0.000346714 
0 0 -0.000346714 0 0 -0.000346714 0 0 -0.00160516 
0 0 -0.00160516 0 0 -0.000346714 0 0 -0.000346714 
0 0 -0.000346714 0 0 -0.000346714 0 0 -0.00160516 
0 0 -0.00160516 0 0 -0.000346714 0 0 -0.000346714 
0 0 -0.000346714 0 0 -0.000346714 0 0 -0.00160516 
0 0 -0.000346714 0 0 -0.000346714 0 0 -0.000346714 
0 0 -0.000346714 0 0 -0.000346714 0 0 -0.00160516 
0 0 -0.000346714 0 0 -0.000346714 0 0 -0.00160516 
0 0 -0.00160516 0 0 -0.00160516 0 0 -0.000346714 
0 0 -0.00160516 0 0 -0.00160516 0 0 -0.000346714 
0 0 -0.000346714 0 0 -0.000346714 0 0 -0.000346714 
0 0 -0.00160516 0 0 -0.00160516 0 0 -0.00160516 
0 0 -0.000346714 0 0 -0.000346714 0 0 -0.000346714 
0 0 -0.00160516 0 0 -0.000346714 0 0 -0.000346714 
0 0 -0.00160516 0 0 -0.000346714 0 0 -0.000346714 
0 0 -0.000346714 0 0 -0.000346714 0 0 -0.00160516 
0 0 -0.000346714 0 0 -0.000346714 0 0 -0.000346714 
0 0 -0.00160516 0 0 -0.000346714 0 0 -0.000346714 
0 0 -0.00160516 0 0 -0.000346714 0 0 -0.000346714 
0 0 -0.000346714 0 0 -0.00160516 0 0 -0.000346714 
0 0 -0.000346714 0 0 -0.00160516 0 0 -0.000346714 
0 0 -0.000346714 0 0 -0.000346714 0 0 -0.000346714 
0 0 -0.000346714 0 0 -0.000346714 0 0 -0.00160516 
0 0 -0.00160516 0 0 -0.000346714 0 0 -0.00160516 
0 0 0 0 0 0 0 0 0 

radius 1 207 double
0.0015 0.0015 0.0015 0.0025 0.0015 0.0025 0.0025 0.0025 0.0015 
0.0015 0.0015 0.0025 0.0025 0.0025 0.0015 0.0025 0.0015 0.0025 
0.0015 0.0025 0.0015 0.0025 0.0015 0.0015 0.0015 0.0015 0.0025 
0.0015 0.0025 0.0015 0.0015 0.0015 0.0025 0.0015 0.0015 0.0025 
0.0015 0.0015 0.0015 0.0015 0.0025 0.0015 0.0015 0.0015 0.0025 
0.0025 0.0025 0.0015 0.0025 0.0015 0.0015 0.0015 0.0015 0.0015 
0.0015 0.0025 0.0015 0.0015 0.0015 0.0015 0.0015 0.0015 0.0015 
0.0015 0.0025 0.0015 0.0015 0.0015 0.0015 0.0015 0.0015 0.0025 
0.0015 0.0015 0.0015 0.0025 0.0015 0.0025 0.0025 0.0015 0.0015 
0.0015 0.0025 0.0015 0.0015 0.0015 0.0025 0.0025 0.0015 0.0015 
0.0015 0.0015 0.0015 0.0015 0.0025 0.0025 0.0015 0.0015 0.0015 
0.0025 0.0015 0.0025 0.0015 0.0015 0.0015 0.0015 0.0025 0.0015 
0.0015 0.0025 0.0015 0.0025 0.0025 0.0015 0.0015 0.0025 0.0025 
0.0025 0.0025 0.0015 0.0025 0.0015 0.0025 0.0025 0.0015 0.0015 
0.0015 0.0015 0.0025 0.0015 0.0015 0.0015 0.0015 0.0015 0.0025 
0.0025 0.0015 0.0015 0.0015 0.0015 0.0025 0.0025 0.0015 0.0015 
0.0015 0.0015 0.0025 0.0015 0.0015 0.0015 0.0015 0.0015 0.0025 
0.0015 0.0015 0.0025 0.0025 0.0025 0.0015 0.0025 0.0025 0.0015 
0.0015 0.0015 0.0015 0.0025 0.0025 0.0025 0.0015 0.0015 0.0015 
0.0025 0.0015 0.0015 0.0025 0.0015 0.0015 0.0015 0.0015 0.0025 
0.0015 0.0015 0.0015 0.0025 0.0015 0.0015 0.0025 0.0015 0.0015 
0.0015 0.0025 0.0015 0.0015 0.0025 0.0015 0.0015 0.0015 0.0015 
0.0015 0.0015 0.0025 0.0025 0.0015 0.0025 0.0015 0.0025 0.0015 

omega 3 207 double
67.7465 637.592 -11.6285 0 0 0 42.558 -1.71516 11.7173 
0 0 0 -37.8314 248.532 22.8183 -76.864 -31.0168 -42.2107 
0 0 0 -84.9059 6.92355 -3.8056e-14 0 0 0 
0 0 0 311.876 364.689 4.55204e-13 -96.0893 -130.991 -40.9297 
68.3999 112.496 -28.3617 0 0 0 129.422 243.081 -7.935e-13 
0 0 0 0 0 0 -33.1696 -62.2993 -1.05096e-13 
0 0 0 0 0 0 0 0 0 
0 0 0 0 0 0 45.8905 9.57361 0.000143032 
268.474 313.937 4.55204e-13 0 0 0 60.1477 141.36 -3.42248e-14 
-124.271 241.469 -25.0987 42.0127 7.93286 -16.0178 0 0 0 
-716.973 141.879 -95.6331 0 0 0 0 0 0 
0 0 0 -687.831 -332.279 -1.23475e-13 -73.7279 -35.6167 -1.64542e-14 
0 0 0 0 0 0 0 0 0 
-646.979 52.7571 -2.86443e-13 0 0 0 0 0 0 
355.188 -130.679 11.7173 0 0 0 0 0 0 
109.429 257.184 -3.42248e-14 -101.935 109.842 2.98785 182.803 -162.511 5.96284e-14 
0 0 0 0 0 0 0 0 0 
0 0 0 -276.236 40.9548 -116.087 0 0 0 
-165.432 -81.6526 -96.9191 24.0015 -21.3372 7.91665e-15 0 0 0 
0 0 0 545.802 -79.0971 0.203169 -148.517 458.394 -44.7727 
-657.527 -98.2738 10.8735 29.4146 280.47 -66.3348 0 0 0 
0 0 0 0 0 0 0 0 0 
0 0 0 119.363 218.65 -140.78 0 0 0 
0 0 0 0 0 0 0 0 0 
0 0 0 139.116 92.1319 5.40502 0 0 0 
0 0 0 -190.488 17.6978 68.8687 0 0 0 
-0.410313 -379.707 2.40756 -293.515 -211.554 110.664 0 0 0 
0 0 0 0 0 0 0 0 0 
0 0 0 0 0 0 0 0 0 
0 0 0 0 0 0 0 0 0 
0 0 0 -225.034 237.272 63.1378 -178.754 140.2 -135.513 
48.1001 -153.142 14.9503 -28.5013 46.4314 -17.7533 0 0 0 
-102.169 -128.333 -35.4634 0 0 0 -414.875 -227.914 20.9499 
-46.2458 -77.7488 0.644114 -1.41835 -305.722 -77.7463 -119.248 -150.323 82.7825 
0 0 0 0 0 0 0 0 0 
0 0 0 0 0 0 0 0 0 
0 0 0 0 0 0 0 0 0 
0 0 0 0 0 0 0 0 0 
0 0 0 0 0 0 0 0 0 
-1.44659 40.1872 -6.50191 15.4275 -154.456 -48.7894 -486.838 6.91876 -0.202167 
-203.39 -54.8477 -1.08743 0 0 0 -14.2192 -217.796 4.25164 
0 0 0 0 0 0 0 0 0 
390.72 137.341 0.000274998 0 0 0 0 0 0 
-56.0446 154.247 -13.1581 -240.672 85.2654 -120.089 121.363 71.9436 -61.3721 
404.261 74.3367 -44.9768 358.411 323.921 -18.2145 0 0 0 
27.2732 17.1709 -23.3478 -35.7368 -448.379 -2.3577e-14 0 0 0 
-312.858 81.0804 -36.8573 0 0 0 0 0 0 
0 0 0 -609.416 -273.188 0.557027 0 0 0 
0 0 0 0 0 0 0 0 0 
242.93 -279.335 -5.81338e-14 0 0 0 0 0 0 
0 0 0 0 0 0 0 0 0 
0 0 0 0 0 0 0 0 0 
0 0 0 0 0 0 0 0 0 
0 0 0 0 0 0 0 0 0 
0 0 0 0 0 0 0 0 0 
0 0 0 0 0 0 0 0 0 
0 0 0 0 0 0 0 0 0 
0 0 0 0 0 0 0 0 0 
0 0 0 0 0 0 0 0 0 
0 0 0 0 0 0 0 0 0 
0 0 0 0 0 0 0 0 0 
0 0 0 0 0 0 0 0 0 
0 0 0 0 0 0 0 0 0 
0 0 0 0 0 0 0 0 0 
0 0 0 0 0 0 0 0 0 
0 0 0 0 0 0 0 0 0 
0 0 0 0 0 0 0 0 0 
0 0 0 0 0 0 0 0 0 
0 0 0 0 0 0 0 0 0 

