# vtk DataFile Version 4.0
Generated by LIGGGHTS
ASCII
DATASET POLYDATA
POINTS 971 float
-0.0129568 -0.0479368 0.0811094 -0.0100071 -0.0484638 0.0811197 -0.00709557 -0.049172 0.0811209 
-0.00410979 -0.0494451 0.0811205 -0.00111938 -0.0496784 0.081124 0.00364363 -0.0479962 0.0821183 
0.00744826 -0.0489498 0.0811205 0.0116236 -0.048314 0.0811205 0.0145922 -0.047411 0.0811257 
-0.0223208 -0.0443277 0.0811205 -0.0184649 -0.0460178 0.0811201 -0.0154701 -0.04628 0.0811204 
-0.0125174 -0.0449433 0.0811202 -0.0091312 -0.0447403 0.0811217 -0.00620254 -0.0453865 0.0811202 
-0.00236492 -0.0469355 0.0811202 -0.00338675 -0.0441225 0.0811201 0.000963761 -0.0445269 0.0811542 
0.00692393 -0.0459122 0.0811206 0.0103977 -0.0455657 0.0811178 0.0174736 -0.0465351 0.0811202 
0.02025 -0.0453078 0.0811196 -0.0251732 -0.0417061 0.0821182 -0.0195576 -0.0430904 0.0811205 
-0.0151324 -0.0420872 0.0821185 -0.0117218 -0.0402645 0.0811186 -0.00640867 -0.041711 0.0811205 
0.00453342 -0.0427466 0.0821111 0.0119768 -0.0412498 0.0822086 0.0167985 -0.0425982 0.082118 
0.023403 -0.043846 0.0811669 0.025537 -0.0417607 0.0813204 -0.0292393 -0.0387874 0.0821184 
-0.0239155 -0.0379076 0.0811195 -0.0199636 -0.0391829 0.0821187 -0.0151452 -0.0370596 0.0821193 
-0.00907322 -0.0388614 0.0811197 -0.00567227 -0.0386473 0.0811208 0.00525238 -0.0388994 0.0811206 
0.00997315 -0.0364329 0.0821464 0.0184038 -0.0382063 0.081131 0.0281304 -0.0401979 0.0811571 
0.0318054 -0.0380316 0.0816154 -0.0365375 -0.0336361 0.0811205 -0.033168 -0.0355608 0.0821374 
-0.0277177 -0.0351387 0.0811205 -0.0246409 -0.0349931 0.0811194 -0.021727 -0.0357336 0.08112 
-0.0166239 -0.0334129 0.0811205 -0.018816 -0.035364 0.0817668 -0.0107381 -0.0345457 0.0822742 
-0.00694176 -0.0359196 0.0811206 -0.000634111 -0.0368035 0.082106 0.00249878 -0.0343961 0.0811205 
0.0052404 -0.0358932 0.0811144 0.0149054 -0.0358051 0.0820941 0.0192767 -0.0341395 0.0811196 
0.0228719 -0.0355794 0.0821368 0.0288062 -0.0336501 0.0821181 -0.0385257 -0.0311834 0.0811205 
-0.0347704 -0.0312107 0.0811205 -0.0300683 -0.0331882 0.0811204 -0.0261069 -0.0323784 0.0811181 
-0.0226547 -0.0326064 0.0811355 -0.0195761 -0.0325347 0.0811204 -0.0138473 -0.0322511 0.08112 
-0.00582811 -0.0295922 0.0821846 0.00666594 -0.0296998 0.082156 0.00915436 -0.0326521 0.0811232 
0.012373 -0.0328701 0.0811202 0.014528 -0.03097 0.0823724 0.0176492 -0.0316155 0.0811205 
0.0213066 -0.0319258 0.0811197 0.0335704 -0.0312358 0.0811206 0.037279 -0.0316595 0.0811205 
-0.0404605 -0.0287861 0.08112 -0.0364501 -0.0284809 0.081118 -0.0327268 -0.0289394 0.0811202 
-0.0310779 -0.0262778 0.0811273 -0.0288833 -0.0294826 0.0821188 -0.0257124 -0.0269416 0.0811205 
-0.0224395 -0.0295415 0.0811205 -0.0153418 -0.0291755 0.0811205 -0.0139941 -0.0263145 0.0811205 
-0.0113683 -0.0292754 0.0821185 -0.00114902 -0.0285618 0.0811205 0.00213786 -0.0288982 0.0811297 
0.00412489 -0.0265976 0.0811206 0.0105292 -0.0297466 0.0811209 0.0126725 -0.0266809 0.0811205 
0.0259038 -0.0292286 0.0811555 0.0284133 -0.0275623 0.0811203 0.0396916 -0.0297541 0.0811205 
0.0390293 -0.0267785 0.0811208 0.0420347 -0.0263884 0.0811946 -0.0419897 -0.0260278 0.0811205 
-0.0375485 -0.0256837 0.0811205 -0.0396009 -0.0234563 0.0811205 -0.0342558 -0.026367 0.0812709 
-0.0316684 -0.0231577 0.0811204 -0.0281148 -0.0251291 0.0811486 -0.0223685 -0.0251489 0.0811214 
-0.0107591 -0.0251193 0.0811205 -0.00733058 -0.0248779 0.0811099 -0.00451008 -0.025884 0.0811175 
-0.00151873 -0.0255623 0.0811205 0.00149007 -0.0229418 0.082118 0.00808771 -0.0261073 0.0811218 
0.0120876 -0.0236971 0.0810637 0.0190237 -0.025439 0.0811206 0.0163551 -0.0240509 0.0811204 
0.0231464 -0.0250908 0.0821756 0.0268486 -0.0239758 0.0811201 0.0309876 -0.0246353 0.0821198 
0.0401165 -0.023817 0.0811205 -0.0432617 -0.0221928 0.082117 -0.0354134 -0.0223512 0.0822375 
-0.0318736 -0.0196632 0.0811205 -0.0281798 -0.0212451 0.0821193 -0.0243149 -0.0221647 0.0811205 
-0.0117947 -0.0222265 0.0811285 -0.00836632 -0.0220655 0.0811236 -0.0048179 -0.0200068 0.0821951 
0.00518859 -0.0218507 0.0811086 0.0120674 -0.0206334 0.0811205 0.0153924 -0.0211856 0.0811205 
0.0202558 -0.0199628 0.0821187 0.0242232 -0.0211414 0.0811205 0.0290429 -0.0210736 0.0811218 
0.0343016 -0.0218162 0.0811205 0.0373242 -0.0218049 0.0811205 0.0438075 -0.0199825 0.0811164 
-0.0458045 -0.0192798 0.0811189 -0.0466526 -0.0163799 0.0811205 -0.0415453 -0.0187257 0.0811214 
-0.0284704 -0.0158491 0.0811205 -0.0258411 -0.0173024 0.0811205 -0.0164651 -0.017091 0.0822283 
-0.00998635 -0.0186451 0.0811219 -0.0113276 -0.0159473 0.0811204 -0.00745 -0.0157466 0.082193 
-0.00123356 -0.0186199 0.0811138 0.00243796 -0.0169271 0.0821183 0.00780376 -0.0190245 0.0821184 
0.0180538 -0.0167648 0.0811181 0.0242773 -0.0179623 0.0811169 0.0271987 -0.0173031 0.0811193 
0.0318227 -0.0183621 0.0821158 0.0391918 -0.0184041 0.0821191 -0.0467189 -0.0125015 0.0821183 
-0.0411517 -0.0157544 0.0811198 -0.0374543 -0.0146053 0.0821185 -0.0323929 -0.0155483 0.0821173 
-0.0229896 -0.0129227 0.081132 -0.0207294 -0.0140528 0.0829431 -0.013858 -0.0142792 0.0811167 
-0.0110226 -0.0129623 0.0811213 -0.00414468 -0.0137803 0.0811169 -0.000407366 -0.0127889 0.0821241 
0.00344166 -0.0124516 0.0811175 0.00553725 -0.0145872 0.0811196 0.00853025 -0.0147044 0.0811202 
0.0123983 -0.0152948 0.0811205 0.0160048 -0.01345 0.0821878 0.0213117 -0.014673 0.0821179 
0.0252569 -0.0149636 0.0811205 0.0291845 -0.013985 0.082118 0.0354774 -0.0149559 0.0821256 
0.0422467 -0.0158644 0.0811212 0.0423839 -0.0128066 0.0811205 0.0461144 -0.0155992 0.0821175 
-0.0486848 -0.00897158 0.0811505 -0.0431745 -0.00906306 0.081121 -0.0424761 -0.0123406 0.0811563 
-0.0393093 -0.00995536 0.0821213 -0.0342186 -0.0121159 0.0811205 -0.0355175 -0.00893067 0.0811205 
-0.0309918 -0.0119359 0.0811146 -0.0325454 -0.00937219 0.0811203 -0.0296259 -0.00854463 0.0811205 
-0.025573 -0.011402 0.0811196 -0.0266138 -0.00856783 0.0811202 -0.0205268 -0.0112119 0.0811209 
-0.0166084 -0.012054 0.0811205 -0.0183758 -0.00912098 0.0811199 -0.0135139 -0.0113073 0.0812155 
-0.00678025 -0.0117551 0.0811005 0.00121854 -0.00913361 0.0811199 0.00654582 -0.0101414 0.0821185 
0.0113512 -0.0115613 0.0821182 0.0150436 -0.00943326 0.0811785 0.0194131 -0.009788 0.0821166 
0.0305505 -0.0091862 0.0821119 0.0343707 -0.00990634 0.0811249 0.0417347 -0.00898605 0.0821179 
0.0475017 -0.0115331 0.08112 -0.0492503 -0.00602706 0.0811194 -0.0343336 -0.00611685 0.0811205 
-0.0257611 -0.00563778 0.0811196 -0.0221956 -0.00711435 0.082159 -0.0165812 -0.00670066 0.0811176 
-0.0140994 -0.00837401 0.0811207 -0.0137702 -0.00539666 0.0811646 -0.0111118 -0.00861657 0.0811224 
-0.0090832 -0.0053602 0.0811198 -0.00682789 -0.00858763 0.0811495 -0.00568574 -0.00566608 0.0811212 
-0.002844 -0.00834048 0.0821189 0.00373495 -0.00746683 0.0811221 0.00633587 -0.00597568 0.0811204 
0.0103118 -0.00624734 0.0811205 0.0133114 -0.00570961 0.0811206 0.0167465 -0.00679563 0.081155 
0.0215698 -0.00643351 0.0811205 0.0254784 -0.00695566 0.0821167 0.0345467 -0.00602778 0.0822179 
0.038393 -0.00705248 0.0811217 0.0459736 -0.00760755 0.0811205 0.0488987 -0.00882999 0.0811205 
0.049278 -0.0058531 0.0811208 -0.0438673 -0.00513659 0.0821126 -0.0329146 -0.0032853 0.0811054 
-0.0300111 -0.00225117 0.08112 -0.0270966 -0.00295352 0.0811244 -0.0231746 -0.00337828 0.0811205 
-0.0190054 -0.00494565 0.0811188 -0.0162506 -0.00372263 0.0811356 -0.0136285 -0.00219058 0.0811205 
-0.0105682 -0.00198219 0.0811208 -0.00730553 -0.00292624 0.0811205 -0.00352165 -0.0036286 0.0810969 
0.000807643 -0.00494056 0.0821089 0.00445145 -0.00357721 0.0811197 0.00814975 -0.00233257 0.0821185 
0.0160332 -0.00385543 0.0811205 0.0190484 -0.0047878 0.0811205 0.0226313 -0.00261299 0.0821168 
0.0290929 -0.00559406 0.081129 0.0340845 -0.00183674 0.0811205 0.039999 -0.00385609 0.0811126 
0.0426736 -0.00522369 0.0811209 0.0425541 -0.00213596 0.0811114 0.0461677 -0.0035365 0.0821157 
-0.0496457 0.000586691 0.0811205 -0.0450664 -0.000351123 0.0811205 -0.0411535 -0.00090957 0.0821181 
-0.0355079 -0.000437358 0.082071 -0.0316918 0.000229999 0.0811191 -0.027746 2.98818e-05 0.081121 
-0.0248925 -0.000919927 0.0811202 -0.0209233 -0.00138748 0.0811205 -0.0173008 -1.27251e-07 0.0821162 
-0.0133332 0.000853973 0.0811205 -0.00841257 0.000112948 0.0811205 -0.00546162 -0.000474749 0.0811233 
-0.00134806 -0.000460206 0.0820601 0.00290451 -0.00100119 0.0811208 0.0130464 -0.0013574 0.0821072 
0.0188868 -0.00153759 0.0811205 0.0165546 0.000457213 0.0811205 0.0206733 0.000935332 0.0811205 
0.0261709 -0.000908443 0.0811192 0.0279227 0.0015277 0.0811205 0.0301874 -0.00176714 0.0821244 
0.0325933 0.00130734 0.0811205 0.0359187 0.000611641 0.081114 0.0391943 -0.000954298 0.0811205 
0.0418128 0.000963172 0.0811193 0.0446674 3.55135e-05 0.0811205 0.0486252 0.000811937 0.0821187 
-0.0484396 0.00439481 0.0821183 -0.0435056 0.00350658 0.0821179 -0.038517 0.00233944 0.0811205 
-0.0353109 0.00490477 0.08112 -0.033077 0.00290044 0.0811199 -0.0297025 0.00248146 0.0811205 
-0.0270605 0.00432191 0.0811166 -0.0229435 0.00242939 0.082118 -0.0154626 0.00465399 0.0821315 
-0.0105127 0.00388609 0.0821124 -0.0055425 0.00340085 0.0825937 0.00170924 0.00210698 0.0811204 
-0.000915856 0.00367225 0.0809723 0.00341988 0.00535909 0.0811205 0.00569925 0.00206838 0.0821172 
0.0101657 0.00519091 0.0821183 0.014207 0.0023319 0.081119 0.0170256 0.00346751 0.0811205 
0.0207623 0.00515236 0.0821172 0.0254308 0.00327381 0.0811179 0.0279218 0.00497994 0.0811205 
0.0305991 0.00362653 0.0811205 0.034796 0.00507309 0.0821183 0.0454055 0.00303602 0.0811206 
-0.0453459 0.00692055 0.0811208 -0.0382795 0.00533359 0.0811205 -0.0400845 0.00773188 0.0811207 
-0.0371779 0.00846076 0.0811206 -0.0308262 0.00626314 0.0821178 -0.0269653 0.00750377 0.0811206 
-0.0229054 0.00743361 0.0821183 -0.0192309 0.00567879 0.0811206 -0.0192591 0.00878694 0.0811206 
-0.00531062 0.00776281 0.0811206 -0.00282334 0.00599338 0.0811205 0.000390284 0.00768317 0.081121 
[...]
POINT_DATA 971
FIELD FieldData 7
id 1 971 int
51 207 96 228 273 172 50 151 239 
199 262 11 290 278 48 100 59 637 
277 187 161 279 2 164 412 113 137 
422 371 257 597 390 297 213 269 119 
396 394 675 590 426 18 545 180 211 
34 21 193 191 416 171 178 459 87 
492 398 203 208 184 77 583 293 496 
58 329 582 345 526 495 46 670 166 
97 409 216 88 304 168 433 527 562 
352 548 342 362 619 685 557 510 634 
454 529 289 110 74 568 38 428 740 
522 6 381 351 407 192 480 485 378 
549 523 303 449 645 92 72 298 460 
584 185 24 338 252 169 541 702 364 
332 300 594 63 366 175 176 274 408 
261 173 272 515 542 384 547 435 310 
98 493 444 473 222 259 149 4 425 
153 62 76 431 531 486 580 102 478 
367 476 462 69 80 630 140 128 221 
294 382 464 183 306 613 266 521 561 
49 125 165 275 39 331 250 124 28 
372 95 131 14 227 160 267 520 509 
218 15 70 286 45 32 280 138 141 
30 204 249 84 241 64 237 93 334 
406 10 238 82 156 544 441 253 9 
154 33 263 370 12 163 55 375 106 
353 35 245 202 205 109 13 162 130 
85 354 209 197 36 291 481 356 146 
212 292 264 232 276 104 122 155 112 
224 337 159 350 490 363 255 442 157 
1 79 217 57 89 111 22 53 54 
40 436 453 254 427 3 270 229 336 
158 179 265 256 143 429 215 126 314 
20 347 543 447 115 150 528 649 711 
573 244 326 23 467 593 320 312 144 
268 311 117 235 385 397 285 654 330 
339 284 129 374 399 305 288 373 105 
574 456 8 569 451 71 380 505 494 
324 75 167 369 368 61 120 365 651 
633 349 225 589 500 558 585 581 530 
219 653 145 29 83 470 712 5 627 
415 513 246 599 601 536 635 570 401 
41 466 25 701 118 577 533 147 488 
468 301 418 567 393 234 174 359 327 
47 214 376 391 190 189 487 181 484 
188 420 103 37 283 200 201 148 17 
403 714 417 455 571 465 313 73 761 
139 443 282 315 42 68 335 325 302 
121 379 177 501 231 395 91 472 632 
194 142 101 226 195 534 483 307 623 
361 31 471 26 99 236 281 170 196 
474 445 206 440 482 16 198 135 123 
251 242 309 114 60 461 52 81 328 
136 152 56 414 243 7 402 186 344 
507 457 479 608 614 506 642 19 423 
624 596 358 595 220 708 741 592 499 
607 182 576 498 538 44 564 90 672 
677 690 438 661 721 667 704 820 575 
553 94 750 618 600 319 258 550 287 
489 565 621 271 694 787 240 377 709 
296 606 134 65 421 620 43 346 554 
519 539 636 419 260 563 724 779 617 
299 693 713 86 318 609 383 233 517 
753 699 230 665 638 512 659 400 132 
127 556 703 725 773 622 67 321 650 
463 247 452 133 439 780 316 411 698 
551 343 497 357 317 410 631 525 814 
697 610 749 770 107 322 502 765 555 
810 341 446 295 768 615 323 560 389 
404 644 707 782 437 413 706 629 764 
532 434 108 716 696 767 781 722 430 
559 728 405 210 612 729 717 360 625 
587 116 508 639 552 388 754 475 524 
643 540 518 333 469 598 27 477 355 
652 668 450 223 503 605 78 387 663 
684 572 432 611 424 516 683 248 646 
743 763 718 816 566 826 603 736 805 
785 628 719 723 802 733 795 806 766 
511 748 626 738 66 662 666 774 688 
747 742 602 813 588 734 755 678 727 
579 591 392 809 776 737 769 616 817 
818 671 641 804 735 679 726 788 812 
794 793 535 676 777 308 705 801 756 
674 386 640 771 796 604 669 448 586 
803 656 687 700 514 692 546 340 578 
760 751 799 537 458 673 695 811 682 
752 491 757 830 647 792 660 655 746 
715 504 348 664 797 681 658 680 821 
807 786 720 798 759 775 783 789 730 
791 686 808 824 744 827 833 822 731 
829 745 758 831 648 772 815 823 819 
841 691 828 845 842 657 689 846 790 
839 836 840 835 800 844 843 710 778 
859 832 847 850 851 837 856 854 853 
849 858 855 732 739 848 867 870 865 
869 862 868 864 871 784 878 838 880 
879 872 876 882 762 875 896 894 834 
874 884 891 895 883 893 892 887 885 
861 899 908 886 863 906 898 825 889 
909 900 901 902 890 860 877 873 857 
852 904 903 905 897 888 907 919 881 
918 866 917 916 915 911 910 913 912 
922 921 920 914 928 930 924 929 923 
932 925 927 934 931 926 933 943 940 
944 946 936 937 939 945 942 941 938 
935 947 951 953 956 957 954 958 952 
950 955 949 959 948 971 967 964 965 
969 960 970 966 961 968 962 963 
type 1 971 int
1 1 1 1 1 1 1 1 1 
1 1 1 1 1 1 1 1 1 
1 1 1 1 1 1 1 1 1 
1 1 1 1 1 1 1 1 1 
1 1 1 1 1 1 1 1 1 
1 1 1 1 1 1 1 1 1 
1 1 1 1 1 1 1 1 1 
1 1 1 1 1 1 1 1 1 
1 1 1 1 1 1 1 1 1 
1 1 1 1 1 1 1 1 1 
1 1 1 1 1 1 1 1 1 
1 1 1 1 1 1 1 1 1 
1 1 1 1 1 1 1 1 1 
1 1 1 1 1 1 1 1 1 
1 1 1 1 1 1 1 1 1 
1 1 1 1 1 1 1 1 1 
1 1 1 1 1 1 1 1 1 
1 1 1 1 1 1 1 1 1 
1 1 1 1 1 1 1 1 1 
1 1 1 1 1 1 1 1 1 
1 1 1 1 1 1 1 1 1 
1 1 1 1 1 1 1 1 1 
1 1 1 1 1 1 1 1 1 
1 1 1 1 1 1 1 1 1 
1 1 1 1 1 1 1 1 1 
1 1 1 1 1 1 1 1 1 
1 1 1 1 1 1 1 1 1 
1 1 1 1 1 1 1 1 1 
1 1 1 1 1 1 1 1 1 
1 1 1 1 1 1 1 1 1 
1 1 1 1 1 1 1 1 1 
1 1 1 1 1 1 1 1 1 
1 1 1 1 1 1 1 1 1 
1 1 1 1 1 1 1 1 1 
1 1 1 1 1 1 1 1 1 
1 1 1 1 1 1 1 1 1 
1 1 1 1 1 1 1 1 1 
1 1 1 1 1 1 1 1 1 
1 1 1 1 1 1 1 1 1 
1 1 1 1 1 1 1 1 1 
1 1 1 1 1 1 1 1 1 
1 1 1 1 1 1 1 1 1 
1 1 1 1 1 1 1 1 1 
1 1 1 1 1 1 1 1 1 
1 1 1 1 1 1 1 1 1 
1 1 1 1 1 1 1 1 1 
1 1 1 1 1 1 1 1 1 
1 1 1 1 1 1 1 1 1 
1 1 1 1 1 1 1 1 1 
1 1 1 1 1 1 1 1 1 
1 1 1 1 1 1 1 1 1 
1 1 1 1 1 1 1 1 1 
1 1 1 1 1 1 1 1 1 
1 1 1 1 1 1 1 1 1 
1 1 1 1 1 1 1 1 1 
1 1 1 1 1 1 1 1 1 
1 1 1 1 1 1 1 1 1 
1 1 1 1 1 1 1 1 1 
1 1 1 1 1 1 1 1 1 
1 1 1 1 1 1 1 1 1 
1 1 1 1 1 1 1 1 1 
1 1 1 1 1 1 1 1 1 
1 1 1 1 1 1 1 1 1 
1 1 1 1 1 1 1 1 1 
1 1 1 1 1 1 1 1 1 
1 1 1 1 1 1 1 1 1 
1 1 1 1 1 1 1 1 1 
1 1 1 1 1 1 1 1 1 
1 1 1 1 1 1 1 1 1 
1 1 1 1 1 1 1 1 1 
1 1 1 1 1 1 1 1 1 
1 1 1 1 1 1 1 1 1 
1 1 1 1 1 1 1 1 1 
1 1 1 1 1 1 1 1 1 
1 1 1 1 1 1 1 1 1 
1 1 1 1 1 1 1 1 1 
1 1 1 1 1 1 1 1 1 
1 1 1 1 1 1 1 1 1 
1 1 1 1 1 1 1 1 1 
1 1 1 1 1 1 1 1 1 
1 1 1 1 1 1 1 1 1 
1 1 1 1 1 1 1 1 1 
1 1 1 1 1 1 1 1 1 
1 1 1 1 1 1 1 1 1 
1 1 1 1 1 1 1 1 1 
1 1 1 1 1 1 1 1 1 
1 1 1 1 1 1 1 1 1 
1 1 1 1 1 1 1 1 1 
1 1 1 1 1 1 1 1 1 
1 1 1 1 1 1 1 1 1 
1 1 1 1 1 1 1 1 1 
1 1 1 1 1 1 1 1 1 
1 1 1 1 1 1 1 1 1 
1 1 1 1 1 1 1 1 1 
1 1 1 1 1 1 1 1 1 
1 1 1 1 1 1 1 1 1 
1 1 1 1 1 1 1 1 1 
1 1 1 1 1 1 1 1 1 
1 1 1 1 1 1 1 1 1 
1 1 1 1 1 1 1 1 1 
1 1 1 1 1 1 1 1 1 
1 1 1 1 1 1 1 1 1 
1 1 1 1 1 1 1 1 1 
1 1 1 1 1 1 1 1 1 
1 1 1 1 1 1 1 1 1 
1 1 1 1 1 1 1 1 1 
1 1 1 1 1 1 1 1 1 
1 1 1 1 1 1 1 1 
i 3 971 int
0 0 0 0 0 0 0 0 0 
0 0 0 0 0 0 0 0 0 
0 0 0 0 0 0 0 0 0 
0 0 0 0 0 0 0 0 0 
0 0 0 0 0 0 0 0 0 
0 0 0 0 0 0 0 0 0 
0 0 0 0 0 0 0 0 0 
0 0 0 0 0 0 0 0 0 
0 0 0 0 0 0 0 0 0 
0 0 0 0 0 0 0 0 0 
0 0 0 0 0 0 0 0 0 
0 0 0 0 0 0 0 0 0 
0 0 0 0 0 0 0 0 0 
0 0 0 0 0 0 0 0 0 
0 0 0 0 0 0 0 0 0 
0 0 0 0 0 0 0 0 0 
0 0 0 0 0 0 0 0 0 
0 0 0 0 0 0 0 0 0 
0 0 0 0 0 0 0 0 0 
0 0 0 0 0 0 0 0 0 
0 0 0 0 0 0 0 0 0 
0 0 0 0 0 0 0 0 0 
0 0 0 0 0 0 0 0 0 
0 0 0 0 0 0 0 0 0 
0 0 0 0 0 0 0 0 0 
0 0 0 0 0 0 0 0 0 
0 0 0 0 0 0 0 0 0 
0 0 0 0 0 0 0 0 0 
0 0 0 0 0 0 0 0 0 
0 0 0 0 0 0 0 0 0 
0 0 0 0 0 0 0 0 0 
0 0 0 0 0 0 0 0 0 
0 0 0 0 0 0 0 0 0 
0 0 0 0 0 0 0 0 0 
0 0 0 0 0 0 0 0 0 
0 0 0 0 0 0 0 0 0 
0 0 0 0 0 0 0 0 0 
0 0 0 0 0 0 0 0 0 
0 0 0 0 0 0 0 0 0 
0 0 0 0 0 0 0 0 0 
0 0 0 0 0 0 0 0 0 
0 0 0 0 0 0 0 0 0 
0 0 0 0 0 0 0 0 0 
0 0 0 0 0 0 0 0 0 
0 0 0 0 0 0 0 0 0 
0 0 0 0 0 0 0 0 0 
0 0 0 0 0 0 0 0 0 
0 0 0 0 0 0 0 0 0 
0 0 0 0 0 0 0 0 0 
0 0 0 0 0 0 0 0 0 
0 0 0 0 0 0 0 0 0 
0 0 0 0 0 0 0 0 0 
0 0 0 0 0 0 0 0 0 
0 0 0 0 0 0 0 0 0 
0 0 0 0 0 0 0 0 0 
0 0 0 0 0 0 0 0 0 
0 0 0 0 0 0 0 0 0 
0 0 0 0 0 0 0 0 0 
0 0 0 0 0 0 0 0 0 
0 0 0 0 0 0 0 0 0 
0 0 0 0 0 0 0 0 0 
0 0 0 0 0 0 0 0 0 
0 0 0 0 0 0 0 0 0 
0 0 0 0 0 0 0 0 0 
0 0 0 0 0 0 0 0 0 
0 0 0 0 0 0 0 0 0 
0 0 0 0 0 0 0 0 0 
0 0 0 0 0 0 0 0 0 
0 0 0 0 0 0 0 0 0 
0 0 0 0 0 0 0 0 0 
0 0 0 0 0 0 0 0 0 
0 0 0 0 0 0 0 0 0 
0 0 0 0 0 0 0 0 0 
0 0 0 0 0 0 0 0 0 
0 0 0 0 0 0 0 0 0 
0 0 0 0 0 0 0 0 0 
0 0 0 0 0 0 0 0 0 
0 0 0 0 0 0 0 0 0 
0 0 0 0 0 0 0 0 0 
0 0 0 0 0 0 0 0 0 
0 0 0 0 0 0 0 0 0 
0 0 0 0 0 0 0 0 0 
0 0 0 0 0 0 0 0 0 
0 0 0 0 0 0 0 0 0 
0 0 0 0 0 0 0 0 0 
0 0 0 0 0 0 0 0 0 
0 0 0 0 0 0 0 0 0 
0 0 0 0 0 0 0 0 0 
0 0 0 0 0 0 0 0 0 
0 0 0 0 0 0 0 0 0 
0 0 0 0 0 0 0 0 0 
0 0 0 0 0 0 0 0 0 
0 0 0 0 0 0 0 0 0 
0 0 0 0 0 0 0 0 0 
0 0 0 0 0 0 0 0 0 
0 0 0 0 0 0 0 0 0 
0 0 0 0 0 0 0 0 0 
0 0 0 0 0 0 0 0 0 
0 0 0 0 0 0 0 0 0 
0 0 0 0 0 0 0 0 0 
0 0 0 0 0 0 0 0 0 
0 0 0 0 0 0 0 0 0 
0 0 0 0 0 0 0 0 0 
0 0 0 0 0 0 0 0 0 
0 0 0 0 0 0 0 0 0 
0 0 0 0 0 0 0 0 0 
0 0 0 0 0 0 0 0 0 
0 0 0 0 0 0 0 0 0 
0 0 0 0 0 0 0 0 0 
0 0 0 0 0 0 0 0 0 
0 0 0 0 0 0 0 0 0 
0 0 0 0 0 0 0 0 0 
0 0 0 0 0 0 0 0 0 
0 0 0 0 0 0 0 0 0 
0 0 0 0 0 0 0 0 0 
0 0 0 0 0 0 0 0 0 
0 0 0 0 0 0 0 0 0 
0 0 0 0 0 0 0 0 0 
0 0 0 0 0 0 0 0 0 
0 0 0 0 0 0 0 0 0 
0 0 0 0 0 0 0 0 0 
0 0 0 0 0 0 0 0 0 
0 0 0 0 0 0 0 0 0 
0 0 0 0 0 0 0 0 0 
0 0 0 0 0 0 0 0 0 
0 0 0 0 0 0 0 0 0 
0 0 0 0 0 0 0 0 0 
0 0 0 0 0 0 0 0 0 
0 0 0 0 0 0 0 0 0 
0 0 0 0 0 0 0 0 0 
0 0 0 0 0 0 0 0 0 
0 0 0 0 0 0 0 0 0 
0 0 0 0 0 0 0 0 0 
0 0 0 0 0 0 0 0 0 
0 0 0 0 0 0 0 0 0 
0 0 0 0 0 0 0 0 0 
0 0 0 0 0 0 0 0 0 
0 0 0 0 0 0 0 0 0 
0 0 0 0 0 0 0 0 0 
0 0 0 0 0 0 0 0 0 
0 0 0 0 0 0 0 0 0 
0 0 0 0 0 0 0 0 0 
0 0 0 0 0 0 0 0 0 
0 0 0 0 0 0 0 0 0 
0 0 0 0 0 0 0 0 0 
0 0 0 0 0 0 0 0 0 
0 0 0 0 0 0 0 0 0 
0 0 0 0 0 0 0 0 0 
0 0 0 0 0 0 0 0 0 
0 0 0 0 0 0 0 0 0 
0 0 0 0 0 0 0 0 0 
0 0 0 0 0 0 0 0 0 
0 0 0 0 0 0 0 0 0 
0 0 0 0 0 0 0 0 0 
0 0 0 0 0 0 0 0 0 
0 0 0 0 0 0 0 0 0 
0 0 0 0 0 0 0 0 0 
0 0 0 0 0 0 0 0 0 
0 0 0 0 0 0 0 0 0 
0 0 0 0 0 0 0 0 0 
0 0 0 0 0 0 0 0 0 
0 0 0 0 0 0 0 0 0 
0 0 0 0 0 0 0 0 0 
0 0 0 0 0 0 0 0 0 
0 0 0 0 0 0 0 0 0 
0 0 0 0 0 0 0 0 0 
0 0 0 0 0 0 0 0 0 
0 0 0 0 0 0 0 0 0 
0 0 0 0 0 0 0 0 0 
0 0 0 0 0 0 0 0 0 
0 0 0 0 0 0 0 0 0 
0 0 0 0 0 0 0 0 0 
0 0 0 0 0 0 0 0 0 
0 0 0 0 0 0 0 0 0 
0 0 0 0 0 0 0 0 0 
0 0 0 0 0 0 0 0 0 
0 0 0 0 0 0 0 0 0 
0 0 0 0 0 0 0 0 0 
0 0 0 0 0 0 0 0 0 
0 0 0 0 0 0 0 0 0 
0 0 0 0 0 0 0 0 0 
0 0 0 0 0 0 0 0 0 
0 0 0 0 0 0 0 0 0 
0 0 0 0 0 0 0 0 0 
0 0 0 0 0 0 0 0 0 
0 0 0 0 0 0 0 0 0 
0 0 0 0 0 0 0 0 0 
0 0 0 0 0 0 0 0 0 
0 0 0 0 0 0 0 0 0 
0 0 0 0 0 0 0 0 0 
0 0 0 0 0 0 0 0 0 
0 0 0 0 0 0 0 0 0 
0 0 0 0 0 0 0 0 0 
0 0 0 0 0 0 0 0 0 
0 0 0 0 0 0 0 0 0 
0 0 0 0 0 0 0 0 0 
0 0 0 0 0 0 0 0 0 
0 0 0 0 0 0 0 0 0 
0 0 0 0 0 0 0 0 0 
0 0 0 0 0 0 0 0 0 
0 0 0 0 0 0 0 0 0 
0 0 0 0 0 0 0 0 0 
0 0 0 0 0 0 0 0 0 
0 0 0 0 0 0 0 0 0 
0 0 0 0 0 0 0 0 0 
0 0 0 0 0 0 0 0 0 
0 0 0 0 0 0 0 0 0 
0 0 0 0 0 0 0 0 0 
0 0 0 0 0 0 0 0 0 
0 0 0 0 0 0 0 0 0 
0 0 0 0 0 0 0 0 0 
0 0 0 0 0 0 0 0 0 
0 0 0 0 0 0 0 0 0 
0 0 0 0 0 0 0 0 0 
0 0 0 0 0 0 0 0 0 
0 0 0 0 0 0 0 0 0 
0 0 0 0 0 0 0 0 0 
0 0 0 0 0 0 0 0 0 
0 0 0 0 0 0 0 0 0 
0 0 0 0 0 0 0 0 0 
0 0 0 0 0 0 0 0 0 
0 0 0 0 0 0 0 0 0 
0 0 0 0 0 0 0 0 0 
0 0 0 0 0 0 0 0 0 
0 0 0 0 0 0 0 0 0 
0 0 0 0 0 0 0 0 0 
0 0 0 0 0 0 0 0 0 
0 0 0 0 0 0 0 0 0 
0 0 0 0 0 0 0 0 0 
0 0 0 0 0 0 0 0 0 
0 0 0 0 0 0 0 0 0 
0 0 0 0 0 0 0 0 0 
0 0 0 0 0 0 0 0 0 
0 0 0 0 0 0 0 0 0 
0 0 0 0 0 0 0 0 0 
0 0 0 0 0 0 0 0 0 
0 0 0 0 0 0 0 0 0 
0 0 0 0 0 0 0 0 0 
0 0 0 0 0 0 0 0 0 
0 0 0 0 0 0 0 0 0 
0 0 0 0 0 0 0 0 0 
0 0 0 0 0 0 0 0 0 
0 0 0 0 0 0 0 0 0 
0 0 0 0 0 0 0 0 0 
0 0 0 0 0 0 0 0 0 
0 0 0 0 0 0 0 0 0 
0 0 0 0 0 0 0 0 0 
0 0 0 0 0 0 0 0 0 
0 0 0 0 0 0 0 0 0 
0 0 0 0 0 0 0 0 0 
0 0 0 0 0 0 0 0 0 
0 0 0 0 0 0 0 0 0 
0 0 0 0 0 0 0 0 0 
0 0 0 0 0 0 0 0 0 
0 0 0 0 0 0 0 0 0 
0 0 0 0 0 0 0 0 0 
0 0 0 0 0 0 0 0 0 
0 0 0 0 0 0 0 0 0 
0 0 0 0 0 0 0 0 0 
0 0 0 0 0 0 0 0 0 
0 0 0 0 0 0 0 0 0 
0 0 0 0 0 0 0 0 0 
0 0 0 0 0 0 0 0 0 
0 0 0 0 0 0 0 0 0 
0 0 0 0 0 0 0 0 0 
0 0 0 0 0 0 0 0 0 
0 0 0 0 0 0 0 0 0 
0 0 0 0 0 0 0 0 0 
0 0 0 0 0 0 0 0 0 
0 0 0 0 0 0 0 0 0 
0 0 0 0 0 0 0 0 0 
0 0 0 0 0 0 0 0 0 
0 0 0 0 0 0 0 0 0 
0 0 0 0 0 0 0 0 0 
0 0 0 0 0 0 0 0 0 
0 0 0 0 0 0 0 0 0 
0 0 0 0 0 0 0 0 0 
0 0 0 0 0 0 0 0 0 
0 0 0 0 0 0 0 0 0 
0 0 0 0 0 0 0 0 0 
0 0 0 0 0 0 0 0 0 
0 0 0 0 0 0 0 0 0 
0 0 0 0 0 0 0 0 0 
0 0 0 0 0 0 0 0 0 
0 0 0 0 0 0 0 0 0 
0 0 0 0 0 0 0 0 0 
0 0 0 0 0 0 0 0 0 
0 0 0 0 0 0 0 0 0 
0 0 0 0 0 0 0 0 0 
0 0 0 0 0 0 0 0 0 
0 0 0 0 0 0 0 0 0 
0 0 0 0 0 0 0 0 0 
0 0 0 0 0 0 0 0 0 
0 0 0 0 0 0 0 0 0 
0 0 0 0 0 0 0 0 0 
0 0 0 0 0 0 0 0 0 
0 0 0 0 0 0 0 0 0 
0 0 0 0 0 0 0 0 0 
0 0 0 0 0 0 0 0 0 
0 0 0 0 0 0 0 0 0 
0 0 0 0 0 0 0 0 0 
0 0 0 0 0 0 0 0 0 
0 0 0 0 0 0 0 0 0 
0 0 0 0 0 0 0 0 0 
0 0 0 0 0 0 0 0 0 
0 0 0 0 0 0 0 0 0 
0 0 0 0 0 0 0 0 0 
0 0 0 0 0 0 0 0 0 
0 0 0 0 0 0 0 0 0 
0 0 0 0 0 0 0 0 0 
0 0 0 0 0 0 0 0 0 
0 0 0 0 0 0 0 0 0 
0 0 0 0 0 0 0 0 0 
0 0 0 0 0 0 0 0 0 
0 0 0 0 0 0 0 0 0 
0 0 0 0 0 0 0 0 0 
0 0 0 0 0 0 0 0 0 
0 0 0 0 0 0 0 0 0 
0 0 0 0 0 0 0 0 0 
0 0 0 0 0 0 0 0 0 
0 0 0 0 0 0 0 0 0 
0 0 0 0 0 0 0 0 0 
0 0 0 0 0 0 0 0 0 
0 0 0 0 0 0 
v 3 971 double
0.00135691 -0.0112811 0.0138689 0.00212111 0.0085475 0.000795311 0.000121053 -0.000102405 9.23436e-06 
0.000166212 -0.00743354 0.00314361 0.00544832 0.00919618 -0.00124083 -0.00867492 0.0113643 -1.11173e-07 
-0.00849723 0.00436193 -3.28995e-08 -0.00225108 -0.000322577 -3.5093e-07 0.00304113 0.0167833 -0.00400668 
0.000461552 0.000584074 -2.47797e-05 -0.00104911 0.00725844 -0.00125565 0.0034403 0.00832433 -0.000361423 
0.0206185 -0.00389389 -0.000376871 0.0215292 0.0363899 -1.03972e-05 0.0130017 -0.00828791 0.000434073 
0.0183944 0.0080073 -0.00101289 0.0131347 0.00358304 -0.00459452 -0.0983991 0.0182974 -0.0504433 
0.000706635 -0.00236332 0.00214545 0.00520336 -0.0086207 -0.00555341 0.000202867 0.000469708 -0.00128107 
0.00268997 0.00157088 -0.000118819 -0.000771645 -0.00227178 -0.000953369 0.0104071 -0.017561 2.52235e-09 
0.0246655 -0.0011468 0.00222419 0.00437347 0.0208141 -0.00738748 -0.0103721 -0.0244932 0.000214458 
-0.00978907 -0.00543329 0.0835097 0.00463162 0.0417786 0.0131536 -0.0047603 -0.00417646 0.000437953 
-0.0568125 -0.0394336 -0.0252449 -0.0442219 -0.0785239 -0.0721227 -0.000601637 0.0028945 -0.00023641 
0.0291132 -0.0185701 -0.0118948 0.00370559 -0.00364771 0.00128607 0.0320161 -0.0219203 0.0257387 
0.00766338 0.00993705 -0.000170983 -0.00969073 0.0112095 -0.000551356 -0.00629114 0.0136084 1.39622e-05 
0.0104407 0.220991 0.172456 -0.0636948 0.0243701 0.00108426 0.0384256 -0.0211614 0.0203682 
0.0086002 0.0188754 0.0343005 -0.000374405 0.000691975 1.93574e-07 0.00469969 0.00852108 0.00927918 
0.00423938 0.00361431 1.31854e-13 -0.0127425 -0.0292709 0.00257946 -0.00462095 -0.0275482 0.0034124 
-0.00187693 0.00291285 7.07776e-06 -0.000717405 -0.00229318 -0.0462346 0.0238189 0.0253517 0.0716534 
0.0173232 0.0265471 -8.36377e-05 0.0538572 -0.0320464 0.0309489 0.00844935 0.00825105 2.93327e-13 
-0.00784492 0.00257648 -0.00087037 0.0693857 0.177857 0.0405402 -0.00294031 0.0186099 -0.00155881 
0.00421022 0.0409554 0.00206578 0.0453181 0.00868184 8.00719e-05 0.00100248 0.0028617 3.68164e-12 
-0.00601632 0.005043 -1.30829e-07 -0.0222773 -0.0119861 -0.000650668 -0.044132 -0.0436991 -0.000558167 
-0.0245666 -0.00225635 -0.019322 -0.010302 0.00315413 -0.000793706 0.0051033 -0.0121114 0.000843365 
-0.0548067 0.0775617 -0.00992784 0.0552311 0.0250491 0.00319219 -0.0595976 0.174956 0.0173426 
-0.0296426 0.100492 0.00735425 -0.0239208 -0.0197632 0.137355 -0.00527021 0.0220042 -0.00088916 
0.000989126 0.0114159 -0.0194324 -0.00766911 -0.0603923 0.000145052 0.0117328 -0.0221369 1.17663e-08 
0.00155812 0.0159446 -0.000601996 0.00283073 0.0263134 0.00137732 0.0153096 -0.0221717 -0.00163136 
0.000300489 0.0146563 -0.0317203 -0.0232562 -0.0021726 0.00444531 -0.0189164 -0.0513619 3.14002e-05 
0.014858 -0.00217688 6.16385e-08 -0.0222657 -0.00357184 -3.16678e-12 -0.0278453 0.0029674 -2.74555e-14 
-0.0152893 0.00553488 -0.000724331 0.0385561 0.0158909 1.04473e-12 0.0246593 -1.43278e-05 -0.0147004 
0.0559671 -0.0174366 0.000293642 0.0558967 0.00809804 -0.00202205 0.00395986 0.00479992 -1.43033e-10 
0.0409274 0.0400755 0.0178462 0.0499932 0.0382969 -0.0014203 0.000257506 0.00258995 2.15348e-11 
0.0325858 0.0136221 -0.00139754 -0.0160382 0.00111328 -0.0160291 0.00956416 -0.000577339 1.15186e-10 
0.00379967 0.0184394 0.00105012 0.00584153 0.0227926 -0.00026933 -0.0327119 -0.020014 0.0268032 
0.00707962 -0.0030411 -0.00336173 0.043005 0.0464813 0.0135023 -0.0241149 -0.0217083 -0.0039227 
0.0181216 -0.039994 -4.02573e-08 0.0393663 0.0355438 -0.000816481 0.0433189 0.0605281 -0.00570573 
0.0350241 -0.00764349 -1.14025e-08 -0.0147972 -0.00590434 0.00139806 0.0559234 0.0301139 0.00244603 
-0.107064 -0.00508982 0.124187 0.0140574 0.0340345 0.000181451 -0.0115802 -0.00368437 -7.77476e-05 
0.0456074 -0.0294621 0.00630742 0.0372835 -0.0055794 -0.000978616 0.0322587 -0.00624446 0.00439038 
-0.00662441 -0.0121937 -8.59372e-14 0.00271128 -0.0045266 -0.00170305 0.0672163 0.0190267 0.0423741 
-0.0223931 0.00805438 8.28843e-10 -0.000618598 0.0546061 -0.00395935 -0.0182066 0.0101019 -2.75569e-13 
0.0165577 -0.0328212 -0.00279431 0.0229729 0.0331546 -0.00505759 0.0148729 0.0305885 -0.0118346 
-0.0121407 0.00108188 -0.0231788 0.00946652 0.0120328 -4.91336e-10 -0.00393317 -0.000702576 1.14815e-07 
0.0159617 -0.00304912 0.00345162 0.00316056 0.0226565 -4.95924e-08 -0.0353766 -0.0219833 0.000172205 
-0.00307881 0.00174441 -3.72021e-06 0.00154 -0.00121432 6.08596e-06 -0.015072 0.0271751 -0.00200856 
0.00707063 0.000155129 0.00276809 -0.00806561 -0.00113149 5.0551e-05 0.0284737 -0.0267449 0.0013964 
-0.00453457 0.023424 8.01359e-07 0.00253424 0.0340416 -9.46175e-07 -0.0955977 0.167367 0.0673207 
0.0378145 -0.00473551 -0.00138876 0.022137 -0.00760674 0.000161112 -0.00497384 0.0330274 0.0111721 
0.0421903 0.00344786 0.00939839 0.00514691 -0.00443204 0.000240285 -0.0170502 -0.0117562 0.00852866 
0.0256298 -0.00634833 0.00357087 0.000664769 0.0195236 0.00346196 0.000882925 -0.00762185 -0.000859379 
-0.0362316 -0.0131288 0.00569836 -0.043308 0.0246426 0.00527216 0.0133128 0.000643005 8.08623e-05 
-0.00121923 -0.0419825 0.00743381 -0.0152752 0.00869167 -0.00129135 -0.0161812 0.0119844 0.00318497 
-0.0394883 0.0533496 -0.0349812 -0.127821 -0.0630419 0.0919285 0.0731468 0.000758573 0.00742057 
0.0215223 -0.00639476 0.0025986 -0.00294711 0.0188961 -0.00251974 0.00259465 -0.00419111 0.000815559 
0.000683517 -0.00416696 -0.00220347 -0.00969265 0.0213039 0.00162428 -0.0229549 -0.00257828 0.00291238 
-0.0193922 -0.0148172 -3.03312e-06 -0.00332522 -0.00023361 -0.0367939 -0.00855938 0.0335909 0.00145499 
0.00149748 -0.0462992 -2.606e-07 0.0174717 -0.0211585 -0.000574922 -0.053414 0.0206845 0.00925123 
-0.00225877 -0.0245221 0.00406239 -0.0106847 -0.00776011 -1.40637e-05 0.0189609 0.00416882 0.000737675 
0.0264547 -0.00843292 0.00178243 -0.0309624 0.0173929 0.00164134 0.0065177 -0.0331521 0.00131589 
-0.0145824 0.0144863 -0.0160819 -0.0268799 0.0117458 5.00594e-05 0.000291474 0.00210011 -4.28108e-05 
-0.00552194 0.00842239 -0.0158487 0.000207833 0.0080522 -0.000830003 -0.0739952 0.0944424 -1.6574e-05 
-0.0464976 0.0470553 0.000934991 -0.0704529 0.0374706 -0.00291153 0.00893285 -0.00942869 0.00522026 
0.0286381 -0.00664235 -8.29408e-07 -0.0131397 0.0129507 -8.59551e-05 0.0405741 0.0182686 -0.00858117 
0.00482237 -0.0304507 0.0395973 0.000410448 0.0100461 -0.00016989 0.00285854 0.0229696 3.79266e-05 
-0.0173879 -0.0143604 0.000236796 -0.029434 0.0710675 0.0664746 -0.00550282 0.0046613 -0.000323429 
-0.0167168 -0.000948143 0.0054113 -0.0407038 -0.0353764 0.0063652 -0.0178091 -0.0135305 -0.000519413 
-0.0127937 -0.0214043 5.57064e-05 -0.0144909 -0.013484 -0.00180711 -0.0270922 0.0221783 -2.11285e-08 
-0.00391544 0.0278602 -0.00401984 -0.00771095 0.00627545 -0.0306404 0.00723153 0.0240541 -0.00310072 
0.0230076 0.0262135 -0.00581691 0.0378307 0.0346886 0.00543961 0.027874 -0.0108885 0.00386155 
0.0112598 0.00858355 -0.000229421 -0.0033135 -0.023584 0.0273205 -0.014412 -0.0456163 0.0126555 
0.0140161 -0.00643801 0.00172207 0.0345769 -0.0177566 -0.000718392 -0.00609117 0.0293123 -0.000978126 
-0.00204099 0.00651148 6.65621e-13 -0.0162853 0.0128222 -0.0031737 -0.045198 0.069492 0.0665828 
0.00877725 0.00502126 1.29836e-06 -0.0472123 -0.0386369 -9.08634e-06 0.00848173 -0.0436047 0.0363293 
-0.0151492 -0.0174681 0.00243796 -0.00890696 -0.014327 1.66905e-13 -0.00257826 -0.018176 7.76658e-05 
0.000370726 -0.017857 -0.000168012 -0.0287363 0.0232104 0.0170022 0.0643669 -0.0671688 -0.0583435 
-0.0176455 0.00161973 0.00312532 -0.0132541 0.0254986 0.00273972 0.0112281 0.0176367 0.000428558 
-0.00251463 0.0230244 -0.00290603 0.0208054 0.0206465 -0.00336138 0.0182247 0.0113131 -1.1862e-07 
0.0223428 0.00911295 0.000735627 -0.00795996 0.0213076 -1.31975e-06 -0.0347306 -0.122587 -0.0621318 