# vtk DataFile Version 4.0
Generated by LIGGGHTS
ASCII
DATASET POLYDATA
POINTS 691 float
-0.0122955 -0.0475549 0.0811205 -0.00896933 -0.0486804 0.0811178 -0.00359718 -0.0495093 0.0811203 
0.00436412 -0.0484971 0.0821183 0.00868065 -0.048783 0.0811205 0.0124995 -0.0478558 0.0810963 
-0.0202367 -0.0454025 0.0811205 -0.0173193 -0.0439746 0.0812483 -0.0146888 -0.0454119 0.0811205 
-0.00995244 -0.0455908 0.0811203 -0.00538717 -0.0470965 0.0811193 -0.00270195 -0.0457688 0.0810931 
-5.16481e-05 -0.0472099 0.08112 -5.92635e-05 -0.0442012 0.0811205 0.00631847 -0.0450324 0.0811205 
0.00974865 -0.0449489 0.0811205 0.015349 -0.0462914 0.0811241 0.0188679 -0.0456186 0.0811205 
-0.0257984 -0.0411817 0.0821184 -0.0228559 -0.0437026 0.0811209 -0.0122599 -0.04364 0.0811205 
-0.00967519 -0.0415667 0.0811205 -0.00441637 -0.0432857 0.0811371 -0.00180202 -0.0417443 0.0811891 
0.0134594 -0.0429007 0.0821233 0.0240327 -0.043214 0.0811205 0.0285675 -0.040657 0.0811205 
-0.0298197 -0.0382017 0.0821183 -0.0233649 -0.0379439 0.0811205 -0.0195351 -0.0390028 0.0821183 
-0.0142954 -0.0395889 0.0823411 -0.00540874 -0.0394267 0.0821183 0.0155667 -0.0375242 0.0821182 
0.021068 -0.0403162 0.0821183 0.0259568 -0.0378738 0.0811204 0.0316902 -0.037826 0.0811205 
-0.032637 -0.0340592 0.0821185 -0.0268021 -0.0330637 0.0811205 -0.0190904 -0.0339706 0.0821183 
-0.0128019 -0.0353946 0.0810811 -0.0070578 -0.0340008 0.0821183 -0.00281345 -0.0359089 0.0828141 
0.0118287 -0.0364003 0.0811205 0.019102 -0.0343261 0.0811197 0.02194 -0.0353043 0.0811228 
0.0247125 -0.0341284 0.0811238 0.0346341 -0.0353306 0.0811205 -0.0369354 -0.032891 0.0811205 
-0.0390057 -0.0306302 0.0811205 -0.0353354 -0.0301327 0.0811206 -0.0297652 -0.0314103 0.0811205 
-0.0101983 -0.0309459 0.0811807 0.00362873 -0.0337166 0.0811522 0.00330162 -0.0304477 0.0811205 
0.00822615 -0.0294907 0.0815199 0.0145736 -0.0332327 0.0811205 0.0171516 -0.031174 0.0811205 
0.020948 -0.0301489 0.0821183 0.0262903 -0.0305835 0.0821189 0.0365859 -0.032149 0.0811203 
0.0389718 -0.0301976 0.0811185 -0.0398747 -0.0275367 0.0811205 -0.0346105 -0.0270393 0.0811237 
-0.0323639 -0.0297172 0.0811204 -0.0316156 -0.0268012 0.0811219 -0.0288841 -0.02852 0.0811205 
-0.0261026 -0.0294349 0.081914 -0.0206355 -0.0273784 0.0821164 -0.0173488 -0.0296425 0.0820484 
-0.0154304 -0.0273102 0.0811209 -0.0017309 -0.0268068 0.0811205 0.00531663 -0.027965 0.0843472 
0.0114881 -0.0284097 0.0811237 0.0171305 -0.0278835 0.0811235 0.0406865 -0.0277877 0.0815917 
-0.042262 -0.0256877 0.0811204 -0.037097 -0.0244162 0.0811205 -0.0274866 -0.0247302 0.0821179 
-0.0220129 -0.0230242 0.0811205 -0.0175417 -0.0250077 0.0811208 -0.0136389 -0.0226678 0.0811205 
-0.00961944 -0.0224125 0.0811205 -0.0062903 -0.0246865 0.0818251 0.0425838 -0.0255183 0.0811204 
-0.0437497 -0.0207521 0.0821947 -0.0330723 -0.0226702 0.0822647 -0.0294926 -0.0192554 0.0811205 
-0.0254662 -0.0201562 0.0821183 -0.0215913 -0.020053 0.0811205 -0.0176385 -0.0211171 0.0821182 
-0.00623432 -0.0201689 0.0821313 0.0062861 -0.0221639 0.0821183 0.0172199 -0.0203692 0.0811666 
0.0365948 -0.0190738 0.0811721 0.0439326 -0.0228438 0.0811172 0.0412809 -0.0211229 0.0825751 
-0.0456959 -0.0174257 0.0811226 -0.0335844 -0.0169689 0.0821186 -0.022375 -0.017076 0.0811592 
-0.0032953 -0.0162029 0.0812234 0.00560668 -0.0164233 0.0812581 0.0112186 -0.0196471 0.0821171 
0.0144553 -0.0175158 0.0811859 0.0451049 -0.0173497 0.0821162 -0.0475102 -0.014192 0.0811205 
-0.0440848 -0.0123945 0.0811205 -0.0312658 -0.0138513 0.0811204 -0.0250896 -0.0157654 0.0811215 
-0.0180417 -0.0157021 0.0811205 -0.0143664 -0.0149813 0.0811205 -0.0113553 -0.0139029 0.0811205 
0.0121005 -0.0147756 0.0811614 0.0158258 -0.014015 0.0829141 0.0199061 -0.01518 0.0811203 
0.0335083 -0.012723 0.082116 0.0416717 -0.014378 0.0811205 0.0444786 -0.0131426 0.0811205 
0.0475184 -0.0143221 0.0811194 -0.0475557 -0.0101738 0.0821186 -0.0343929 -0.0105953 0.0811178 
-0.0305756 -0.00992695 0.0821183 -0.025757 -0.0121161 0.0811205 -0.0224739 -0.00969008 0.0821183 
-0.0185907 -0.011282 0.0811205 -0.0135455 -0.00907637 0.0811228 -0.010709 -0.0108719 0.0811205 
0.00315497 -0.0109006 0.0832329 0.00723447 -0.0108611 0.0821183 0.0139823 -0.0089303 0.0813044 
0.0246929 -0.0098796 0.0821183 0.0293536 -0.0123854 0.0811205 0.0374458 -0.0122247 0.0811205 
0.0405647 -0.0115416 0.0811205 0.0440291 -0.00983887 0.0810987 0.0488874 -0.00893001 0.0811115 
-0.0492911 -0.00638201 0.0811205 -0.0427004 -0.00794224 0.0821964 -0.0377626 -0.00870341 0.0821137 
-0.0342521 -0.00614134 0.0811205 -0.0277711 -0.00693884 0.0811205 -0.0229048 -0.00565584 0.0811205 
-0.0173259 -0.00773084 0.0811205 -0.0136538 -0.00607774 0.0811193 -0.0108131 -0.0077802 0.0811205 
-0.00758354 -0.00772309 0.0811208 -0.00583255 -0.00526857 0.0811205 -0.00268299 -0.00833867 0.0821183 
0.00834069 -0.00687646 0.0811191 0.0111589 -0.00789137 0.0814993 0.0160439 -0.00497921 0.0812284 
0.0230772 -0.00622807 0.0811205 0.0296075 -0.0064598 0.0811205 0.0339338 -0.00774515 0.0821207 
0.0378036 -0.00744857 0.0811203 0.0468795 -0.00650246 0.0811205 -0.0484619 -0.00252784 0.0821183 
-0.0446836 -0.00396066 0.0811205 -0.0414565 -0.00370936 0.0812139 -0.0249235 -0.00332921 0.0811295 
-0.0214818 -0.00294409 0.0811205 -0.0191532 -0.00517788 0.0811206 -0.0163072 -0.00504298 0.0820585 
-0.0134643 -0.00304368 0.0811205 -0.00910594 -0.00490572 0.0811193 -0.00810566 -0.00207933 0.0811295 
-0.00087401 -0.00421097 0.0811205 0.00917186 -0.00396715 0.0811244 0.0132603 -0.00377713 0.0811417 
0.0176675 -0.0024592 0.081119 0.0263731 -0.00410348 0.0821179 0.0324471 -0.00417161 0.0811204 
0.0401949 -0.00403588 0.0821183 0.0439968 -0.0054246 0.0811205 0.0458483 -0.0019332 0.0821183 
0.0494919 -0.00364076 0.0811205 -0.0444325 0.000568792 0.0821183 -0.0397061 -9.47013e-05 0.0811281 
-0.0358564 -0.00114728 0.0821196 -0.0306656 0.000686728 0.0811205 -0.0269387 -0.000339232 0.0811205 
-0.0165325 -0.000342712 0.0821183 -0.0126405 0.000416527 0.0811206 -0.00887183 0.00171722 0.0821183 
0.00979836 0.00120838 0.0821183 0.013603 -0.000481231 0.0811205 0.0186793 0.000574369 0.0811217 
0.0214617 0.00166931 0.0811158 0.03029 -0.000950946 0.082119 0.034752 0.000345368 0.0811205 
-0.0492769 0.00316248 0.0811151 -0.0395967 0.0029029 0.0811206 -0.0362978 0.00271473 0.0811203 
-0.030417 0.00381006 0.0811205 -0.027341 0.00293415 0.0811205 -0.0184383 0.00326236 0.0811205 
0.0059514 0.00450506 0.0821186 0.0164845 0.00339146 0.0811205 0.0200214 0.00430369 0.0811205 
0.0238585 0.00349886 0.0811205 0.0264446 0.00509123 0.0811205 0.0265139 0.00209178 0.0811205 
0.0323106 0.00271541 0.0822647 0.0379224 0.00366895 0.0811205 -0.0481984 0.00689987 0.0821187 
-0.0431576 0.00548667 0.0821176 -0.0384899 0.00567628 0.0811155 -0.0291642 0.00644883 0.0820826 
-0.0123964 0.00612642 0.0821281 -2.70975e-05 0.00600012 0.0823008 0.0125691 0.00588104 0.082118 
0.0179965 0.00655743 0.081121 0.0241387 0.0071563 0.0811205 0.02931 0.00821627 0.0811204 
0.0307711 0.00509606 0.0811687 0.0357436 0.00703338 0.0811205 0.0415406 0.00801276 0.0811205 
-0.0466716 0.0117524 0.0821138 -0.0436104 0.00936974 0.0811204 -0.0377678 0.0106522 0.0811155 
-0.0329484 0.00905945 0.0821183 -0.0155826 0.00868519 0.0811205 0.00198226 0.00998051 0.0825355 
0.00648022 0.00838959 0.0811693 0.0138328 0.00966098 0.0811205 0.0478835 0.00875921 0.082124 
-0.0414641 0.0140363 0.0821131 -0.0220673 0.0125714 0.0811205 0.00507335 0.0140767 0.0811113 
0.0206918 0.0140696 0.0811205 0.0249481 0.0132067 0.0811205 0.0290812 0.0127018 0.0821198 
-0.0457181 0.0166497 0.0821227 -0.0416063 0.0179636 0.0811208 -0.0313659 0.0166179 0.0811205 
-0.0121744 0.0175485 0.0813153 0.00449256 0.0178745 0.082183 0.0101125 0.0153445 0.0814274 
0.0358271 0.0158377 0.0811205 -0.0436129 0.0212832 0.0821191 -0.03803 0.0201551 0.0821342 
-0.0172223 0.0227383 0.0811205 -0.0129357 0.0218692 0.0825559 -0.00337277 0.0195243 0.0820997 
0.0317799 0.0193875 0.0821198 0.0456623 0.0194455 0.0811205 -0.0399383 0.0235341 0.0811199 
-0.0364567 0.0252916 0.0811205 -0.0345819 0.0228629 0.0811205 -0.0315225 0.0230277 0.0811206 
-0.0331311 0.0255593 0.081118 -0.0257687 0.0243239 0.0821173 -0.0186409 0.0254009 0.0811205 
-0.00495734 0.0248142 0.0811503 0.0302112 0.0229954 0.0811205 0.0335978 0.0228884 0.08112 
0.0363167 0.0242692 0.0811205 0.0424044 0.0236605 0.0821183 -0.0401847 0.0274002 0.082121 
-0.0323694 0.0293521 0.0821193 -0.0170841 0.0280524 0.0811205 -0.0107996 0.0267714 0.0811298 
-0.00785117 0.0264566 0.0828497 -0.0030242 0.0272471 0.0817046 0.000471753 0.0262862 0.0811205 
0.0134353 0.0291223 0.0832308 0.0158028 0.0299968 0.0812361 0.0280312 0.0265114 0.0811203 
0.0293383 0.0292097 0.0811197 0.03204 0.0264338 0.0821162 0.035812 0.0273867 0.0811205 
0.0408086 0.0283042 0.0811008 -0.0379819 0.0305672 0.0811113 -0.0353898 0.0320605 0.0811156 
-0.0279032 0.0301834 0.0811209 -0.0245194 0.0307769 0.0811205 -0.0139117 0.0290431 0.0811231 
0.0188366 0.0333636 0.0811255 0.0225859 0.0315644 0.0811203 0.0269231 0.0330665 0.082118 
0.0306851 0.0318864 0.0811203 0.0336789 0.0318288 0.0811181 0.0374383 0.030925 0.0821176 
-0.0333869 0.0353669 0.0821175 -0.0285086 0.034085 0.0821174 -0.0247491 0.0350084 0.0811206 
-0.022008 0.0333572 0.0817997 -0.0153264 0.0352967 0.0811625 -0.00942679 0.0355975 0.0812223 
0.00830388 0.0350679 0.0811467 0.0111615 0.0360241 0.081119 0.012993 0.0336489 0.0811379 
0.0160973 0.0347113 0.0811205 0.0296395 0.0358653 0.0811205 0.0357136 0.0344013 0.0811205 
0.0335007 0.0365777 0.0811201 -0.0289182 0.039115 0.0821177 -0.0227422 0.0378654 0.0811205 
-0.0190895 0.0392575 0.0821183 -0.0141421 0.0383355 0.0835224 -0.0079257 0.040165 0.0821183 
0.00106193 0.0382057 0.0822062 0.00609151 0.0382741 0.082119 0.0154969 0.0401709 0.082132 
0.0255017 0.0368146 0.0811191 0.0272204 0.0403503 0.0821193 0.0308317 0.0386971 0.0811205 
-0.0247059 0.0418679 0.0821178 -0.0153724 0.0411332 0.0811219 -0.011993 0.0405496 0.081433 
0.0085461 0.0433948 0.0821 0.0117051 0.0409427 0.0811206 0.022075 0.0403973 0.0821162 
[...]
POINT_DATA 691
FIELD FieldData 7
id 1 691 int
51 207 96 172 50 151 262 164 11 
278 48 228 100 59 277 187 239 161 
2 199 290 113 137 178 371 279 390 
297 213 269 119 171 398 257 426 18 
211 21 169 191 362 192 19 166 203 
97 216 180 77 304 293 351 87 492 
480 46 90 449 184 240 289 38 433 
168 496 58 329 94 193 342 252 531 
378 303 110 88 428 185 24 287 338 
76 515 74 134 460 261 65 62 272 
67 310 98 63 72 366 176 425 173 
124 102 43 367 221 274 149 266 49 
165 275 250 478 372 95 80 140 128 
267 259 306 233 125 15 39 32 138 
230 28 64 131 69 227 86 463 238 
294 183 4 330 218 9 70 45 280 
141 163 55 204 84 353 237 202 14 
406 10 156 382 509 253 356 154 33 
263 12 292 276 375 249 35 93 363 
247 13 130 82 209 383 197 36 291 
146 212 40 106 241 122 112 159 205 
85 217 57 89 111 115 3 155 336 
179 265 224 350 312 1 79 126 22 
54 232 104 229 23 162 337 255 442 
144 268 20 347 150 427 339 244 157 
322 451 254 326 256 411 105 61 8 
71 284 129 288 29 120 415 295 246 
143 368 83 25 470 365 466 5 190 
380 219 305 174 145 41 17 108 225 
189 395 313 503 188 167 401 234 200 
201 47 148 403 376 349 443 508 282 
103 37 42 68 335 302 391 455 483 
181 73 468 139 142 226 101 195 417 
121 534 196 307 91 31 26 198 99 
236 281 242 52 440 27 135 123 170 
309 114 60 7 81 16 251 136 152 
56 243 186 344 220 273 479 412 396 
44 422 394 182 208 421 526 510 523 
6 132 346 364 92 352 400 485 381 
431 473 175 299 444 377 222 153 331 
419 286 30 535 109 334 160 429 370 
260 354 53 264 245 348 441 528 215 
317 314 447 439 270 357 311 397 158 
320 341 117 385 436 66 389 404 285 
505 321 323 373 235 437 75 147 484 
393 405 214 118 533 301 374 430 327 
210 530 420 333 360 379 501 488 471 
194 315 325 206 116 78 355 474 328 
424 445 414 402 340 423 345 491 34 
435 416 407 319 258 271 298 544 296 
332 462 318 517 464 343 520 127 316 
392 452 133 525 107 519 524 502 487 
359 388 514 465 513 418 283 308 386 
177 432 223 248 482 506 547 511 384 
481 543 399 504 475 231 536 461 361 
459 542 486 300 490 453 499 500 458 
457 495 409 548 454 545 369 456 532 
324 516 450 507 549 541 497 522 408 
446 472 539 521 555 562 557 387 448 
553 554 469 410 518 559 546 477 434 
358 494 467 438 556 413 558 551 489 
565 568 552 571 574 564 493 563 569 
537 561 540 570 572 583 582 580 586 
577 581 578 498 476 529 550 560 585 
579 575 584 512 599 596 527 593 590 
594 597 600 598 588 592 576 591 613 
589 608 603 538 607 612 604 605 610 
611 609 573 601 619 595 624 620 617 
606 602 625 567 614 621 587 626 622 
618 623 615 616 566 632 633 635 636 
637 627 639 631 634 628 629 638 630 
649 652 643 648 641 651 650 645 647 
646 640 642 658 644 665 655 663 660 
659 656 654 661 662 657 653 678 664 
667 669 673 675 672 670 674 668 677 
671 666 676 684 685 690 682 686 681 
680 687 683 691 679 688 689 
type 1 691 int
1 1 1 1 1 1 1 1 1 
1 1 1 1 1 1 1 1 1 
1 1 1 1 1 1 1 1 1 
1 1 1 1 1 1 1 1 1 
1 1 1 1 1 1 1 1 1 
1 1 1 1 1 1 1 1 1 
1 1 1 1 1 1 1 1 1 
1 1 1 1 1 1 1 1 1 
1 1 1 1 1 1 1 1 1 
1 1 1 1 1 1 1 1 1 
1 1 1 1 1 1 1 1 1 
1 1 1 1 1 1 1 1 1 
1 1 1 1 1 1 1 1 1 
1 1 1 1 1 1 1 1 1 
1 1 1 1 1 1 1 1 1 
1 1 1 1 1 1 1 1 1 
1 1 1 1 1 1 1 1 1 
1 1 1 1 1 1 1 1 1 
1 1 1 1 1 1 1 1 1 
1 1 1 1 1 1 1 1 1 
1 1 1 1 1 1 1 1 1 
1 1 1 1 1 1 1 1 1 
1 1 1 1 1 1 1 1 1 
1 1 1 1 1 1 1 1 1 
1 1 1 1 1 1 1 1 1 
1 1 1 1 1 1 1 1 1 
1 1 1 1 1 1 1 1 1 
1 1 1 1 1 1 1 1 1 
1 1 1 1 1 1 1 1 1 
1 1 1 1 1 1 1 1 1 
1 1 1 1 1 1 1 1 1 
1 1 1 1 1 1 1 1 1 
1 1 1 1 1 1 1 1 1 
1 1 1 1 1 1 1 1 1 
1 1 1 1 1 1 1 1 1 
1 1 1 1 1 1 1 1 1 
1 1 1 1 1 1 1 1 1 
1 1 1 1 1 1 1 1 1 
1 1 1 1 1 1 1 1 1 
1 1 1 1 1 1 1 1 1 
1 1 1 1 1 1 1 1 1 
1 1 1 1 1 1 1 1 1 
1 1 1 1 1 1 1 1 1 
1 1 1 1 1 1 1 1 1 
1 1 1 1 1 1 1 1 1 
1 1 1 1 1 1 1 1 1 
1 1 1 1 1 1 1 1 1 
1 1 1 1 1 1 1 1 1 
1 1 1 1 1 1 1 1 1 
1 1 1 1 1 1 1 1 1 
1 1 1 1 1 1 1 1 1 
1 1 1 1 1 1 1 1 1 
1 1 1 1 1 1 1 1 1 
1 1 1 1 1 1 1 1 1 
1 1 1 1 1 1 1 1 1 
1 1 1 1 1 1 1 1 1 
1 1 1 1 1 1 1 1 1 
1 1 1 1 1 1 1 1 1 
1 1 1 1 1 1 1 1 1 
1 1 1 1 1 1 1 1 1 
1 1 1 1 1 1 1 1 1 
1 1 1 1 1 1 1 1 1 
1 1 1 1 1 1 1 1 1 
1 1 1 1 1 1 1 1 1 
1 1 1 1 1 1 1 1 1 
1 1 1 1 1 1 1 1 1 
1 1 1 1 1 1 1 1 1 
1 1 1 1 1 1 1 1 1 
1 1 1 1 1 1 1 1 1 
1 1 1 1 1 1 1 1 1 
1 1 1 1 1 1 1 1 1 
1 1 1 1 1 1 1 1 1 
1 1 1 1 1 1 1 1 1 
1 1 1 1 1 1 1 1 1 
1 1 1 1 1 1 1 1 1 
1 1 1 1 1 1 1 1 1 
1 1 1 1 1 1 1 
i 3 691 int
0 0 0 0 0 0 0 0 0 
0 0 0 0 0 0 0 0 0 
0 0 0 0 0 0 0 0 0 
0 0 0 0 0 0 0 0 0 
0 0 0 0 0 0 0 0 0 
0 0 0 0 0 0 0 0 0 
0 0 0 0 0 0 0 0 0 
0 0 0 0 0 0 0 0 0 
0 0 0 0 0 0 0 0 0 
0 0 0 0 0 0 0 0 0 
0 0 0 0 0 0 0 0 0 
0 0 0 0 0 0 0 0 0 
0 0 0 0 0 0 0 0 0 
0 0 0 0 0 0 0 0 0 
0 0 0 0 0 0 0 0 0 
0 0 0 0 0 0 0 0 0 
0 0 0 0 0 0 0 0 0 
0 0 0 0 0 0 0 0 0 
0 0 0 0 0 0 0 0 0 
0 0 0 0 0 0 0 0 0 
0 0 0 0 0 0 0 0 0 
0 0 0 0 0 0 0 0 0 
0 0 0 0 0 0 0 0 0 
0 0 0 0 0 0 0 0 0 
0 0 0 0 0 0 0 0 0 
0 0 0 0 0 0 0 0 0 
0 0 0 0 0 0 0 0 0 
0 0 0 0 0 0 0 0 0 
0 0 0 0 0 0 0 0 0 
0 0 0 0 0 0 0 0 0 
0 0 0 0 0 0 0 0 0 
0 0 0 0 0 0 0 0 0 
0 0 0 0 0 0 0 0 0 
0 0 0 0 0 0 0 0 0 
0 0 0 0 0 0 0 0 0 
0 0 0 0 0 0 0 0 0 
0 0 0 0 0 0 0 0 0 
0 0 0 0 0 0 0 0 0 
0 0 0 0 0 0 0 0 0 
0 0 0 0 0 0 0 0 0 
0 0 0 0 0 0 0 0 0 
0 0 0 0 0 0 0 0 0 
0 0 0 0 0 0 0 0 0 
0 0 0 0 0 0 0 0 0 
0 0 0 0 0 0 0 0 0 
0 0 0 0 0 0 0 0 0 
0 0 0 0 0 0 0 0 0 
0 0 0 0 0 0 0 0 0 
0 0 0 0 0 0 0 0 0 
0 0 0 0 0 0 0 0 0 
0 0 0 0 0 0 0 0 0 
0 0 0 0 0 0 0 0 0 
0 0 0 0 0 0 0 0 0 
0 0 0 0 0 0 0 0 0 
0 0 0 0 0 0 0 0 0 
0 0 0 0 0 0 0 0 0 
0 0 0 0 0 0 0 0 0 
0 0 0 0 0 0 0 0 0 
0 0 0 0 0 0 0 0 0 
0 0 0 0 0 0 0 0 0 
0 0 0 0 0 0 0 0 0 
0 0 0 0 0 0 0 0 0 
0 0 0 0 0 0 0 0 0 
0 0 0 0 0 0 0 0 0 
0 0 0 0 0 0 0 0 0 
0 0 0 0 0 0 0 0 0 
0 0 0 0 0 0 0 0 0 
0 0 0 0 0 0 0 0 0 
0 0 0 0 0 0 0 0 0 
0 0 0 0 0 0 0 0 0 
0 0 0 0 0 0 0 0 0 
0 0 0 0 0 0 0 0 0 
0 0 0 0 0 0 0 0 0 
0 0 0 0 0 0 0 0 0 
0 0 0 0 0 0 0 0 0 
0 0 0 0 0 0 0 0 0 
0 0 0 0 0 0 0 0 0 
0 0 0 0 0 0 0 0 0 
0 0 0 0 0 0 0 0 0 
0 0 0 0 0 0 0 0 0 
0 0 0 0 0 0 0 0 0 
0 0 0 0 0 0 0 0 0 
0 0 0 0 0 0 0 0 0 
0 0 0 0 0 0 0 0 0 
0 0 0 0 0 0 0 0 0 
0 0 0 0 0 0 0 0 0 
0 0 0 0 0 0 0 0 0 
0 0 0 0 0 0 0 0 0 
0 0 0 0 0 0 0 0 0 
0 0 0 0 0 0 0 0 0 
0 0 0 0 0 0 0 0 0 
0 0 0 0 0 0 0 0 0 
0 0 0 0 0 0 0 0 0 
0 0 0 0 0 0 0 0 0 
0 0 0 0 0 0 0 0 0 
0 0 0 0 0 0 0 0 0 
0 0 0 0 0 0 0 0 0 
0 0 0 0 0 0 0 0 0 
0 0 0 0 0 0 0 0 0 
0 0 0 0 0 0 0 0 0 
0 0 0 0 0 0 0 0 0 
0 0 0 0 0 0 0 0 0 
0 0 0 0 0 0 0 0 0 
0 0 0 0 0 0 0 0 0 
0 0 0 0 0 0 0 0 0 
0 0 0 0 0 0 0 0 0 
0 0 0 0 0 0 0 0 0 
0 0 0 0 0 0 0 0 0 
0 0 0 0 0 0 0 0 0 
0 0 0 0 0 0 0 0 0 
0 0 0 0 0 0 0 0 0 
0 0 0 0 0 0 0 0 0 
0 0 0 0 0 0 0 0 0 
0 0 0 0 0 0 0 0 0 
0 0 0 0 0 0 0 0 0 
0 0 0 0 0 0 0 0 0 
0 0 0 0 0 0 0 0 0 
0 0 0 0 0 0 0 0 0 
0 0 0 0 0 0 0 0 0 
0 0 0 0 0 0 0 0 0 
0 0 0 0 0 0 0 0 0 
0 0 0 0 0 0 0 0 0 
0 0 0 0 0 0 0 0 0 
0 0 0 0 0 0 0 0 0 
0 0 0 0 0 0 0 0 0 
0 0 0 0 0 0 0 0 0 
0 0 0 0 0 0 0 0 0 
0 0 0 0 0 0 0 0 0 
0 0 0 0 0 0 0 0 0 
0 0 0 0 0 0 0 0 0 
0 0 0 0 0 0 0 0 0 
0 0 0 0 0 0 0 0 0 
0 0 0 0 0 0 0 0 0 
0 0 0 0 0 0 0 0 0 
0 0 0 0 0 0 0 0 0 
0 0 0 0 0 0 0 0 0 
0 0 0 0 0 0 0 0 0 
0 0 0 0 0 0 0 0 0 
0 0 0 0 0 0 0 0 0 
0 0 0 0 0 0 0 0 0 
0 0 0 0 0 0 0 0 0 
0 0 0 0 0 0 0 0 0 
0 0 0 0 0 0 0 0 0 
0 0 0 0 0 0 0 0 0 
0 0 0 0 0 0 0 0 0 
0 0 0 0 0 0 0 0 0 
0 0 0 0 0 0 0 0 0 
0 0 0 0 0 0 0 0 0 
0 0 0 0 0 0 0 0 0 
0 0 0 0 0 0 0 0 0 
0 0 0 0 0 0 0 0 0 
0 0 0 0 0 0 0 0 0 
0 0 0 0 0 0 0 0 0 
0 0 0 0 0 0 0 0 0 
0 0 0 0 0 0 0 0 0 
0 0 0 0 0 0 0 0 0 
0 0 0 0 0 0 0 0 0 
0 0 0 0 0 0 0 0 0 
0 0 0 0 0 0 0 0 0 
0 0 0 0 0 0 0 0 0 
0 0 0 0 0 0 0 0 0 
0 0 0 0 0 0 0 0 0 
0 0 0 0 0 0 0 0 0 
0 0 0 0 0 0 0 0 0 
0 0 0 0 0 0 0 0 0 
0 0 0 0 0 0 0 0 0 
0 0 0 0 0 0 0 0 0 
0 0 0 0 0 0 0 0 0 
0 0 0 0 0 0 0 0 0 
0 0 0 0 0 0 0 0 0 
0 0 0 0 0 0 0 0 0 
0 0 0 0 0 0 0 0 0 
0 0 0 0 0 0 0 0 0 
0 0 0 0 0 0 0 0 0 
0 0 0 0 0 0 0 0 0 
0 0 0 0 0 0 0 0 0 
0 0 0 0 0 0 0 0 0 
0 0 0 0 0 0 0 0 0 
0 0 0 0 0 0 0 0 0 
0 0 0 0 0 0 0 0 0 
0 0 0 0 0 0 0 0 0 
0 0 0 0 0 0 0 0 0 
0 0 0 0 0 0 0 0 0 
0 0 0 0 0 0 0 0 0 
0 0 0 0 0 0 0 0 0 
0 0 0 0 0 0 0 0 0 
0 0 0 0 0 0 0 0 0 
0 0 0 0 0 0 0 0 0 
0 0 0 0 0 0 0 0 0 
0 0 0 0 0 0 0 0 0 
0 0 0 0 0 0 0 0 0 
0 0 0 0 0 0 0 0 0 
0 0 0 0 0 0 0 0 0 
0 0 0 0 0 0 0 0 0 
0 0 0 0 0 0 0 0 0 
0 0 0 0 0 0 0 0 0 
0 0 0 0 0 0 0 0 0 
0 0 0 0 0 0 0 0 0 
0 0 0 0 0 0 0 0 0 
0 0 0 0 0 0 0 0 0 
0 0 0 0 0 0 0 0 0 
0 0 0 0 0 0 0 0 0 
0 0 0 0 0 0 0 0 0 
0 0 0 0 0 0 0 0 0 
0 0 0 0 0 0 0 0 0 
0 0 0 0 0 0 0 0 0 
0 0 0 0 0 0 0 0 0 
0 0 0 0 0 0 0 0 0 
0 0 0 0 0 0 0 0 0 
0 0 0 0 0 0 0 0 0 
0 0 0 0 0 0 0 0 0 
0 0 0 0 0 0 0 0 0 
0 0 0 0 0 0 0 0 0 
0 0 0 0 0 0 0 0 0 
0 0 0 0 0 0 0 0 0 
0 0 0 0 0 0 0 0 0 
0 0 0 0 0 0 0 0 0 
0 0 0 0 0 0 0 0 0 
0 0 0 0 0 0 0 0 0 
0 0 0 0 0 0 0 0 0 
0 0 0 0 0 0 0 0 0 
0 0 0 0 0 0 0 0 0 
0 0 0 0 0 0 0 0 0 
0 0 0 0 0 0 0 0 0 
0 0 0 0 0 0 0 0 0 
0 0 0 0 0 0 0 0 0 
0 0 0 0 0 0 0 0 0 
0 0 0 0 0 0 0 0 0 
0 0 0 0 0 0 0 0 0 
0 0 0 0 0 0 0 0 0 
0 0 0 
v 3 691 double
-0.0109073 -0.0114332 1.80322e-06 -0.000869621 0.00908784 0.00293081 -0.00654023 0.000879995 -0.000129522 
-9.50841e-05 0.00212812 -1.02893e-05 -0.0307398 -0.00156879 5.81529e-15 0.0134906 -0.0415965 0.00396487 
0.00896498 -0.00233126 -4.48304e-07 0.0154958 0.0338772 0.00839737 0.00103662 0.00598182 2.69595e-05 
-0.0363369 0.0328586 -0.00101528 -0.0132779 -0.00485143 -0.00422397 -0.019936 -0.0116293 0.0124519 
0.00798218 0.00658405 7.8371e-05 -0.00644724 0.00619928 4.48299e-07 -0.0441704 0.0444129 4.16247e-06 
-0.0585832 -0.0160726 -6.10183e-12 0.034597 -0.0316606 0.00481041 -0.0388201 -0.0122909 4.19751e-13 
0.00630806 -0.00206657 -0.000817942 0.00571603 -0.00794826 -0.000154739 -0.00865316 0.0256053 -2.75113e-05 
-0.0341409 -0.0950321 -1.49147e-13 -0.104896 -0.0605426 -0.0284583 -0.0311628 -0.0527861 0.144075 
0.00472251 0.0301743 -0.0503508 -0.0428542 -0.110001 2.30118e-13 -0.0432529 -0.0298846 1.11273e-05 
-0.00118612 -0.0260478 0.000382872 0.0633176 -0.0254292 -2.53311e-07 -0.0131223 0.0116432 1.33097e-07 
0.0305052 0.0460285 0.0174458 -0.0782734 -0.0391216 -7.19734e-06 0.024342 -0.000906567 0.000150138 
-0.0443852 -0.144739 2.85735e-10 -0.0798567 -0.0780276 2.50053e-05 -0.0465921 -0.00827098 7.50566e-08 
0.0151848 -0.0116014 0.000289358 0.0193142 0.0474541 -2.12359e-13 0.0506744 0.0148531 2.43145e-07 
0.0929957 -0.0984702 0.1604 -0.0524494 0.000665399 -7.34472e-05 0.029325 -0.0355829 0.144878 
0.020553 0.000213626 -7.99426e-08 0.0266209 -0.0208269 0.0033341 -0.0201706 -0.124527 -0.121106 
-0.0312062 -0.0585288 0.00193686 0.000368163 0.012631 -2.2413e-11 0.0103927 -0.00129125 -7.74644e-14 
0.0048466 -0.00147471 -5.76054e-12 0.00336098 -0.00548249 -0.000506487 0.0145521 -0.00797115 -4.02959e-05 
0.00928526 0.0655882 0.0602516 0.051447 -0.0738823 0.0149054 0.105064 -0.0534265 1.25701e-07 
-0.101449 0.17032 -0.0530119 -0.0108322 -0.0307236 1.17766e-08 0.00730656 -0.0279062 -1.00304e-07 
0.00972911 -0.0138012 -6.09254e-06 -0.0822288 -0.0236191 0.00374854 0.0136877 0.0109716 -0.00657334 
-0.0280996 -0.0088327 -0.00277069 0.0398982 0.0052017 -5.28448e-06 0.0463593 0.0146144 -0.00598326 
0.00604533 -0.00676696 0.000834412 0.0551329 -0.0280189 -0.00149171 0.0752006 -0.0154928 1.54093e-05 
0.0590695 -0.00773679 -0.118253 -0.000190993 -0.0105682 -0.0122879 -0.0549705 -0.0236503 -0.0413859 
-0.0791074 -0.00637739 -0.00419987 -0.000872811 0.31422 -0.000188693 -0.155877 0.103213 0.415984 
-0.0105161 0.102958 -0.0942017 -0.0376376 -0.0156202 -0.00696782 -0.0332164 -0.00453061 -0.0136603 
0.0174521 -0.0155845 0.000255441 0.0675448 0.0277363 2.41713e-08 -0.0021615 0.00474848 -0.000508807 
0.017595 -0.000326281 1.2526e-05 0.0159089 -0.000463869 0.000234526 0.018817 0.0433322 -1.52874e-05 
-0.0360147 0.116074 1.70582e-06 -0.1329 0.0347984 -0.0428311 -0.0131148 -0.0154794 -0.00351501 
0.00704811 0.0448819 0.00434549 0.182287 -0.0618999 -0.0147025 0.0504364 0.0462988 -0.000161724 
0.00897787 0.00245559 0.000537178 0.0111135 0.00117659 -5.98012e-05 -0.0181243 0.00517075 -5.89709e-05 
-0.09663 0.186995 0.0213365 0.0720255 -0.0131053 2.78257e-10 -0.11888 -0.00858661 0.0302502 
0.0927712 0.108748 0.069 0.0316997 -0.0340106 0.00583997 -0.0532214 0.0826875 0.0834024 
-0.0261869 0.0374846 0.00924925 0.143236 -0.0154522 -0.000793629 -0.0394832 0.0105562 0.0218709 
0.16024 0.05366 0.0510149 0.0624345 0.0263608 0.045563 0.0795248 -0.0909641 -0.00543236 
0.080918 0.0398116 -0.0363511 -0.0101335 0.0154143 0.00359252 0.014778 -0.0256699 2.62693e-07 
0.0178705 0.0048187 -8.59372e-14 0.0902974 0.018019 7.45914e-05 -0.0499294 0.0019533 -0.00465549 
0.0122928 0.00511218 2.2056e-12 0.00188197 -0.000784081 -6.04066e-07 0.000894561 0.104023 6.57449e-06 
-0.119024 -0.0636322 -0.0226318 -0.114142 -0.0689546 0.0493677 -0.148001 0.0928914 0.00090788 
-0.0167127 0.012269 0.0107665 -0.0268683 0.0362733 4.58947e-07 -0.0179993 -0.0034505 2.01096e-08 
-0.00370811 0.0211019 0.0047917 0.00583663 -0.0235327 -0.000335106 0.0787565 -0.016144 -0.00981143 
0.00651932 0.0606074 4.44378e-06 -0.0111808 -0.00464937 1.03696e-13 -0.0122589 0.00727775 3.6733e-13 
-0.0218607 0.0250629 6.72594e-13 0.0134568 -0.00267264 -0.00245943 0.0237146 0.0112879 2.93329e-13 
0.0254742 -0.1026 0.346974 0.0507264 -0.0429912 0.000105957 -0.0460704 0.080614 -0.0351543 
-0.0330267 0.057066 -3.46154e-06 -0.04017 -0.0365984 1.39202e-10 -0.0328459 0.00829479 1.35442e-08 
-0.027324 0.0405522 1.91807e-07 0.0662898 0.0488233 -0.0188865 0.00221725 0.0239857 -0.00626416 
-0.00521298 -0.0259161 1.45952e-08 0.0163365 -0.0584624 0.0430678 0.0448279 -0.0327856 0.00934185 
0.0120476 -0.0244413 5.46172e-13 0.0389761 0.0314116 -4.65203e-13 -0.0185423 -0.00777559 6.8939e-08 
0.00281582 0.0099819 4.16831e-07 0.0186433 0.00334017 0.00172476 0.0325689 -0.0297378 1.20805e-08 
-0.00452552 0.00905746 -0.00035276 0.00425611 0.00803403 0.000243526 0.0338791 0.00662758 -2.7298e-08 
-0.0719149 -0.0268804 0.00495033 -0.0558152 -0.123634 0.0138605 -0.0143415 0.0721264 0.0151132 
-0.00120083 0.0783746 -2.18993e-08 0.00597701 -0.0159181 6.09382e-13 -0.00629003 0.0379345 -0.00279428 
-0.00523608 0.00948151 5.24987e-05 -0.0146843 -0.0233925 -2.34522e-13 0.0108785 -0.0211843 -2.77175e-05 
0.0108796 -0.0308175 -6.4125e-05 -0.0575488 0.0231452 -0.0482457 -0.0445866 -0.136904 0.00750325 
0.00388561 -0.0140425 -4.40462e-08 0.0119662 -0.0154231 -0.0005707 0.0163211 0.0166196 -0.0207623 
0.00426092 0.00872856 1.09009e-08 0.0209894 -0.0451602 0.00534348 -0.0547644 -0.00968805 0.00808004 
0.0426125 0.00943603 -8.07331e-14 -0.0879968 -0.0593157 0.00333035 -0.0998218 -0.0999073 0.057186 
0.0707411 0.0306414 0.00323033 0.0135983 0.00720366 0.000426212 0.0336878 0.0256321 -0.00225556 
0.0214927 0.00519552 -3.1606e-08 0.0190149 -0.0492646 -1.57077e-10 -0.00546396 -0.0284795 2.77062e-08 
-0.00226454 -0.0229955 -2.12358e-13 0.0160877 -0.0156395 6.42224e-06 0.0356591 -0.0365309 -0.00210378 
0.0112191 0.00882343 0.000525645 0.0138205 0.00953412 7.38254e-12 0.012043 0.00563691 2.30278e-06 
0.0134053 0.0324971 -9.33323e-14 -0.0756537 0.0460701 0.000220229 -0.0469827 0.00439847 0.000190923 
-0.0370537 -0.0703609 -0.000295123 0.0110608 0.0422946 -3.1995e-05 0.101703 0.00448997 0.0158595 
0.0317921 0.0352134 -0.0122441 0.0149866 0.0120821 -1.47042e-05 0.0105884 0.0295248 5.46172e-13 
-0.00784127 -0.00252192 0.00424923 -0.0571084 -0.0264682 -0.0201236 -0.0354463 0.0108214 0.000413512 
-0.0482752 -0.00578127 6.54626e-05 -0.0117566 0.0213215 3.01614e-09 0.00746132 0.0344737 -6.54835e-13 
-0.0200257 -0.0649186 0.00251694 -0.00907967 -0.067457 -4.01992e-13 0.0107422 0.0295928 -7.709e-05 
0.0392481 0.00835529 1.31568e-10 0.0222633 0.00156881 -8.35122e-05 0.00975663 -0.000897408 8.39328e-05 
0.0311016 -0.0486108 0.0220644 0.0764067 -0.0120956 2.46382e-07 -0.00339403 -0.0204658 -0.000181664 
-0.0385635 0.00838075 -0.00117263 -0.129339 -0.061428 0.0295131 -0.0884984 0.0108094 0.0467051 
-0.0322654 -0.0143945 0.0185567 0.0669161 -0.0475401 0.066098 0.0495982 -0.110129 -0.00135709 
-0.0086341 -0.0868884 -0.00128961 -0.00192435 -0.0314967 -3.70807e-05 0.0335025 -0.0382679 0.000865398 
-0.0505817 -0.0468542 -0.0424921 0.0509626 -0.014243 4.34528e-12 0.134062 -0.0601514 -1.45111e-10 
-0.0601658 -0.0102002 -0.00225918 -0.0553162 -0.00599681 0.000266996 -0.0343195 0.0280794 -0.0117946 
0.00812843 -0.0356735 -3.00768e-06 -0.0424184 -0.140156 -3.56582e-06 0.146911 -0.353856 0.0721503 
-0.00582898 -0.0273191 0.0202106 0.0956206 -0.123956 -2.08615e-07 0.00824455 -0.0957524 0.0143967 
0.0201429 -0.0499032 0.00756252 -0.0688004 -0.0432279 1.5761e-06 -0.00514032 -0.157953 -0.0054032 
0.00383504 -0.125298 -1.58537e-10 0.0894928 -0.0695914 -4.01425e-13 0.0573743 -0.114177 -0.000830003 
0.00740498 -0.0290473 0.016153 -0.0360211 -0.0181675 0.000191483 -0.0279989 -0.0200256 -2.27263e-14 
-0.0468061 -0.205249 0.0842304 0.0973838 -0.149889 0.040347 -0.0639429 -0.105221 -0.0232516 
0.0842704 0.00739932 -5.28414e-13 -0.00590735 0.00165598 -3.51545e-06 -0.0221634 -0.0179534 -0.0100931 
-0.0134202 -0.0102288 1.66907e-13 -0.108054 -0.0745535 0.0936311 -0.0307632 0.0838397 0.0406804 
0.0238958 -0.0333622 0.00113759 0.00842709 -0.0273572 -2.77787e-05 0.000439239 -0.000652081 -0.00260259 
-0.0130349 -0.00866757 3.66573e-11 -0.0109007 -0.012277 -3.51073e-11 -0.00114641 -0.0043235 -0.00062386 
-0.00421032 -0.00945468 -5.58859e-07 0.00709882 -0.0044637 0.00988868 9.41577e-05 -0.00186997 -2.12359e-13 
0.0735907 -0.078084 -0.0974594 0.015288 -0.0266038 -1.46812e-05 0.0236256 -0.0247219 -0.0013094 
0.0293164 -0.0227128 -6.37038e-08 0.0211425 -0.0501126 -1.11045e-05 0.00228474 0.000547589 -0.0038385 
-0.00455702 -0.00926576 0.00144401 -0.0208213 -0.0858494 -5.01304e-05 0.00660704 -0.0216082 -0.0253578 
0.00219727 -0.0879157 0.233699 0.0246679 -0.139271 -0.0456818 -0.00781659 -0.108355 -0.000168218 
0.131052 0.0279731 0.25172 0.0809857 0.0689214 0.0383853 0.016142 -0.0217633 -0.000376223 
0.0153582 -0.0236653 -0.000580138 0.0196537 -0.0215863 -0.0138351 0.0207738 -0.0120989 -1.32794e-05 
-0.0125626 0.0443707 0.00844165 0.000491472 0.000915647 -0.00458467 4.74747e-05 0.00161792 -0.000114772 
-0.00207352 0.0276294 -0.00946382 0.0308589 -0.0152103 3.93483e-13 0.0866087 -0.198181 0.00197589 
-0.03057 0.0103429 -0.0143586 0.0423783 0.00537862 -0.0013019 0.0155766 -0.0217443 -0.00103747 
-0.0160423 -0.00952519 0.00135874 -0.0120384 -0.0314155 -0.000478607 -0.00132743 0.00293857 0.00353058 
0.00143839 0.00181058 -0.000833768 0.00335172 0.00698437 4.30106e-05 -0.00294933 -0.00498002 0.000178226 
0.0530241 -0.0903838 -0.0406759 0.0690103 0.0538777 0.060281 -0.000554417 0.254031 0.0442481 
0.0260588 -0.00682431 0.0284529 0.0602858 0.0461953 0.00910161 0.0126429 0.0162415 -0.038009 
0.0193442 0.0809768 1.19315e-05 0.0136591 -0.0112242 1.21738e-06 -0.00656675 0.00826636 7.6298e-05 
0.00190939 0.00575106 6.93755e-05 -0.000848462 -0.00340609 -0.000551898 -0.0211424 -0.0320772 -4.77071e-06 
-0.00903523 -0.0526778 -0.000108314 0.00265626 0.0225297 0.209805 0.0323239 -0.0171083 -2.8506e-06 
-0.0123402 0.0149368 -0.0187587 -0.0102632 -0.0171644 -0.00234936 -0.0331366 0.00177965 -0.0138709 
0.021912 -0.0193349 0.00865004 -0.00998662 0.00187247 -0.00369789 -0.0239487 0.0193947 -3.48496e-06 
-0.00678725 -0.00233573 7.34942e-05 -0.0189251 -0.0101242 -0.00259479 0.014947 0.0163132 -0.0454412 
-0.00848141 0.00392816 0.029665 -0.0246308 0.0351884 -0.000108275 -0.02388 0.0126338 0.00729096 
-0.0291912 -0.0223996 0.000288137 -0.029676 -0.0186322 -0.0122144 -0.0115832 0.00308756 0.00335103 
-0.00666022 -0.0158694 0.00583628 -0.0135993 0.00974966 9.91915e-07 0.00716824 -0.00612405 7.36554e-06 
0.00901868 0.0328995 0.000364403 -8.75696e-05 -0.00327147 7.21258e-05 -0.0214393 0.00374309 -0.00194079 
-0.0541518 0.0329173 -0.026074 -0.0271748 -0.0300879 0.0175152 -0.0206219 0.000522173 5.47123e-07 
-0.0201672 0.0113822 -3.68728e-06 -0.0267368 0.0362912 -0.000703496 0.0477143 -0.0235217 0.00703207 
-0.000464203 -0.000535145 -0.000178954 0.0127605 0.065074 -0.0252604 0.00134755 7.01925e-05 -0.0152291 
-0.0659683 -0.254536 0.00363597 -0.00241872 -0.0819531 0.10274 -0.161826 0.0829898 -0.0754124 
-0.129054 -0.0877334 0.0985731 0.106928 0.0164203 0.0381595 -0.0164553 -0.112102 0.0561105 
-0.0549522 0.346464 -0.381381 -0.146616 -0.054786 0.0571775 -0.0509605 -0.0658373 -0.123227 