# vtk DataFile Version 4.0
Generated by LIGGGHTS
ASCII
DATASET POLYDATA
POINTS 1136 float
-0.0124105 -0.0480393 0.081126 -0.00898267 -0.0488299 0.0811205 -0.00534365 -0.0491703 0.0811184 
-0.00175034 -0.0496874 0.0811205 0.00185581 -0.0482772 0.0821314 0.00557937 -0.0493763 0.0811128 
0.0108567 -0.0477849 0.081122 -0.0221324 -0.0444314 0.0811198 -0.0181751 -0.0458838 0.0811148 
-0.015434 -0.047206 0.0811192 -0.0156923 -0.0442223 0.0811125 -0.012664 -0.0439276 0.0811507 
-0.0105519 -0.0458526 0.0820873 -0.00794199 -0.0447332 0.0811188 -0.00404381 -0.0464098 0.0811169 
-0.00111872 -0.0457595 0.0811202 0.00526158 -0.0460906 0.0811317 0.0085784 -0.045745 0.081116 
0.0136294 -0.0466453 0.0811191 0.0166657 -0.0457124 0.0811138 0.0208713 -0.0450497 0.08111 
-0.0249607 -0.0417933 0.0821205 -0.0196954 -0.0416783 0.0811205 -0.0145454 -0.0405272 0.0821205 
-0.0101143 -0.0421493 0.0813428 -0.00519719 -0.0435132 0.0811205 -0.00200558 -0.0414621 0.0811205 
-0.00492841 -0.0405224 0.0811204 0.00197933 -0.0432797 0.0821658 0.00679157 -0.0418118 0.0826567 
0.0202158 -0.0412566 0.0821318 0.023681 -0.0435272 0.0811181 0.0263039 -0.04209 0.081229 
-0.0291056 -0.0390021 0.0821215 -0.0238175 -0.0380977 0.0811219 -0.0198239 -0.0377444 0.0827724 
-0.00749594 -0.0389675 0.0811149 0.0024261 -0.0388737 0.0811206 0.0117001 -0.0394081 0.0821734 
0.0148765 -0.03718 0.081114 0.0251598 -0.0393217 0.0811188 0.0284057 -0.0399615 0.0811178 
0.0307381 -0.0380871 0.0811174 -0.0366034 -0.0335481 0.0811224 -0.0329746 -0.0357442 0.082118 
-0.0282706 -0.0352319 0.0811215 -0.0252994 -0.0354975 0.0810891 -0.0222847 -0.034855 0.0811256 
-0.0187413 -0.0337821 0.081217 -0.0153336 -0.0355931 0.0822 -0.0115424 -0.0364772 0.0811204 
-0.00495087 -0.0356276 0.0811199 0.00173023 -0.035118 0.0823392 0.00579866 -0.0359988 0.0811201 
0.00951719 -0.0349264 0.0821232 0.0144065 -0.0332529 0.0821637 0.0221959 -0.0366857 0.0822894 
0.027366 -0.036139 0.0821307 0.0309775 -0.0346642 0.0811202 0.0334455 -0.0367994 0.0811374 
0.0352829 -0.0333883 0.0821191 -0.0385459 -0.0312594 0.0811175 -0.0302534 -0.0329966 0.0811204 
-0.032302 -0.030898 0.0817044 -0.0266783 -0.032653 0.0811212 -0.0241259 -0.0310585 0.0811219 
-0.0211384 -0.0320003 0.0810884 -0.0164247 -0.0318191 0.0811254 -0.0189928 -0.0299324 0.0811161 
-0.0133859 -0.0322776 0.0811185 -0.00959972 -0.0330746 0.0821985 -0.00573403 -0.0327248 0.0811637 
-0.00192625 -0.0317461 0.0821134 0.00585965 -0.0315276 0.082139 0.0110538 -0.0313533 0.0811203 
0.0182087 -0.0328032 0.0810914 0.0290602 -0.0323087 0.0811213 0.031919 -0.0313092 0.0810572 
0.0385879 -0.0312624 0.0811204 -0.040432 -0.0288558 0.0811131 -0.0375335 -0.0281382 0.0813183 
-0.0348424 -0.0294341 0.0811165 -0.0350663 -0.026321 0.0811205 -0.0322606 -0.0278766 0.0811205 
-0.0286536 -0.0293138 0.0821185 -0.0248911 -0.0281455 0.081181 -0.0218634 -0.0288102 0.0811201 
-0.0162799 -0.028691 0.0811218 -0.0189647 -0.0271946 0.0823058 -0.0124428 -0.0285229 0.0821835 
-0.00744358 -0.0285598 0.0821732 -7.33261e-05 -0.0282364 0.0811836 0.00291275 -0.028497 0.0811732 
0.00491672 -0.0262745 0.0811209 0.00739159 -0.0279544 0.081164 0.0102578 -0.0285175 0.0817855 
0.0153339 -0.0281046 0.0811137 0.0198555 -0.0289124 0.0821167 0.0280855 -0.0268078 0.0811228 
0.0296605 -0.0293516 0.0811172 0.0345305 -0.0284408 0.0821213 0.0403832 -0.02886 0.0811204 
-0.0420675 -0.0262771 0.0811388 -0.0384074 -0.025283 0.0811132 -0.0307696 -0.0252216 0.0811203 
-0.0281347 -0.023241 0.0811311 -0.0228404 -0.0258568 0.0811206 -0.0196122 -0.0232642 0.0821196 
-0.0165895 -0.0256878 0.0811203 -0.0137058 -0.0248821 0.0811311 -0.0157841 -0.0227231 0.0811197 
-0.00922364 -0.0250055 0.0811209 -0.00428214 -0.0244481 0.0811205 -0.00117872 -0.0254387 0.0812329 
0.00202562 -0.0251837 0.081137 0.00484796 -0.0232842 0.0811577 0.00799345 -0.0230846 0.0811205 
0.00943623 -0.025721 0.0811115 0.0121116 -0.024363 0.0811205 0.019266 -0.023933 0.0811192 
0.0242793 -0.0260958 0.0821171 0.0277207 -0.0230521 0.0811205 0.0312904 -0.0246232 0.0821468 
0.0390248 -0.0261861 0.0811207 0.0400141 -0.0233539 0.0811182 0.0370469 -0.0239262 0.0811193 
0.0422935 -0.0260302 0.0811199 -0.0434801 -0.021623 0.0821139 -0.0393874 -0.0195519 0.0811208 
-0.0396389 -0.0225428 0.0811204 -0.035784 -0.0225262 0.0823088 -0.0307618 -0.0217895 0.081121 
-0.0275768 -0.019393 0.0821167 -0.0247631 -0.0222657 0.0811204 -0.018156 -0.0195506 0.0811201 
-0.0141294 -0.0202294 0.0811176 -0.010659 -0.0223721 0.0811199 -0.0086605 -0.0201053 0.0811195 
-0.00428725 -0.0194216 0.0821111 0.000185204 -0.0217423 0.0821378 0.00400393 -0.0204194 0.0811189 
0.0114321 -0.0201334 0.0811521 0.0143596 -0.022372 0.0811205 0.0201915 -0.0198697 0.0821185 
0.0241461 -0.0194611 0.0825588 0.0275021 -0.0194251 0.0811205 0.0345797 -0.0222161 0.0811206 
0.0374983 -0.0206277 0.0811203 0.0408716 -0.0204794 0.0811208 0.0446782 -0.0217188 0.0811205 
-0.0460581 -0.0187313 0.0811204 -0.0405224 -0.0166111 0.0811751 -0.0363188 -0.0171863 0.0821181 
-0.0324997 -0.0178587 0.0811248 -0.0234828 -0.0169444 0.0811206 -0.0210091 -0.0186341 0.0811216 
-0.0150516 -0.0173745 0.0812122 -0.0123494 -0.0160915 0.0811201 -0.0114237 -0.0189486 0.0811221 
-0.00855624 -0.0164279 0.0826837 -0.000362756 -0.0178925 0.0811204 0.00333372 -0.016617 0.0821189 
0.00774896 -0.0189542 0.082129 0.0112692 -0.0171183 0.0811205 0.0149711 -0.0184968 0.0821175 
0.0182871 -0.0164958 0.0811204 0.0282536 -0.0164852 0.0811198 0.0341923 -0.0183617 0.0821166 
0.039017 -0.0170586 0.0821209 0.0433887 -0.0188466 0.0811167 -0.0468783 -0.0158463 0.0811163 
-0.0437177 -0.0157114 0.0811205 -0.041837 -0.0133555 0.0811205 -0.0274989 -0.0155183 0.081121 
-0.0248926 -0.0139891 0.0811049 -0.0186174 -0.0146846 0.0821204 -0.0145934 -0.0140996 0.0811205 
-0.0108555 -0.0133296 0.0811204 -0.00715212 -0.0124076 0.0812232 -0.00292809 -0.0144312 0.0811205 
0.0055248 -0.0134233 0.0811213 0.0103334 -0.0142531 0.0811206 0.0134422 -0.0148178 0.0811309 
0.0168789 -0.0128697 0.0821183 0.0216517 -0.0145724 0.0821182 0.0254009 -0.0133911 0.0811189 
0.0305477 -0.0132238 0.0821165 0.0355458 -0.0134439 0.082118 0.042325 -0.0131317 0.0811205 
0.0462785 -0.0150604 0.0821189 -0.0467206 -0.0119785 0.0821181 -0.0431545 -0.0104267 0.0811205 
-0.0378528 -0.0122781 0.0820976 -0.0343201 -0.00975813 0.0811186 -0.0314223 -0.0105332 0.0811197 
-0.0230003 -0.0116662 0.0811196 -0.025042 -0.00948104 0.0811151 -0.0200615 -0.0110983 0.0811162 
-0.0163801 -0.011345 0.0811205 -0.0131676 -0.0114189 0.0811206 -0.00981604 -0.00994877 0.0812339 
-0.00688321 -0.00932042 0.0820034 -0.00447737 -0.0109558 0.0811173 -0.000604881 -0.0111017 0.0821182 
0.00340195 -0.0112841 0.0811207 0.00733338 -0.00999693 0.0821183 0.012252 -0.0108311 0.0821176 
0.0207388 -0.00964851 0.0821174 0.0334753 -0.0101673 0.0811188 0.0364558 -0.00956302 0.0811205 
0.0392445 -0.0122611 0.0811205 0.0417207 -0.00926306 0.0821194 0.0452966 -0.0112933 0.0811205 
0.0484472 -0.0109005 0.0811191 -0.0488578 -0.0087512 0.0811279 -0.0450661 -0.00810882 0.0811205 
-0.0406506 -0.00739969 0.0821096 -0.0368173 -0.00809796 0.0811204 -0.0356432 -0.00533736 0.0811205 
-0.0304467 -0.00769972 0.0811141 -0.0271775 -0.0073969 0.0811122 -0.0217221 -0.00723996 0.082117 
-0.0181568 -0.00878581 0.0811206 -0.0161832 -0.00652911 0.0811195 -0.0139082 -0.00849973 0.0811166 
-0.0133398 -0.0054873 0.0811205 -0.0100733 -0.00575787 0.0811199 -0.00699951 -0.00643719 0.081121 
-0.00198478 -0.00598315 0.0821183 0.00146657 -0.007832 0.0811179 0.00393379 -0.00611251 0.0811205 
0.00708145 -0.00591507 0.0811205 0.0102564 -0.00737906 0.0813308 0.0131741 -0.00671399 0.0811192 
0.0156387 -0.00841342 0.0811095 0.0183464 -0.00654793 0.0811203 0.0218019 -0.00589118 0.0811203 
0.0258782 -0.00545224 0.0821174 0.0301171 -0.00819731 0.0821188 0.0346995 -0.00606291 0.0821195 
0.0383991 -0.00727858 0.0811173 0.0413506 -0.0054141 0.0811189 0.0458497 -0.00815391 0.0811204 
0.0489957 -0.00795148 0.081119 -0.0494481 -0.00417864 0.0811205 -0.0445127 -0.00418024 0.0821183 
-0.03916 -0.00262919 0.082118 -0.0318814 -0.00484171 0.0811205 -0.0302221 -0.00220453 0.0811297 
-0.0288238 -0.00486377 0.0811148 -0.0265528 -0.00258771 0.0811173 -0.02502 -0.00516537 0.0811202 
-0.0218358 -0.00335079 0.0811199 -0.0187072 -0.00460426 0.0811181 -0.0159026 -0.00353886 0.0811205 
-0.0130752 -0.0024906 0.0811206 -0.00991969 -0.00261227 0.0811205 -0.00628646 -0.00352671 0.0811186 
-0.00216159 -0.00199608 0.0811205 0.00117562 -0.0030969 0.081608 0.0041442 -0.00292466 0.0811206 
0.00805628 -0.00210328 0.0821178 0.0111499 -0.00450527 0.0811202 0.0148937 -0.00417547 0.0811175 
0.0197264 -0.00372539 0.0811338 0.0280269 -0.00221386 0.0811205 0.0311536 -0.00446969 0.0811167 
0.0361275 -0.00203795 0.0811179 0.0385757 -0.00428774 0.0811253 0.0419008 -0.00230994 0.08112 
0.0452095 -0.00431451 0.0821158 0.0494148 -0.00447874 0.0811205 -0.0496947 -0.000498037 0.0811167 
-0.0467055 -0.000958234 0.0811204 -0.0431328 0.000664042 0.082118 -0.0370245 0.00092994 0.0811208 
-0.0342145 -0.00173323 0.0821177 -0.0307484 0.000749089 0.0811203 -0.0261992 0.000696873 0.0811205 
-0.0236655 -0.000975151 0.0811199 -0.0198995 -0.000761832 0.08112 -0.0157334 0.000336341 0.0821159 
-0.00686259 0.000423403 0.0811199 -0.00370832 0.000891267 0.0811184 0.000122999 0.00143574 0.0821176 
0.00406817 0.000201546 0.0811417 0.0128888 -0.000830735 0.0821171 0.0169574 -0.00178926 0.0811205 
0.01927 0.000193262 0.0811205 0.0162745 0.00140391 0.0811205 0.0229034 -0.00143528 0.082119 
0.0257125 0.00122847 0.0811196 0.0288577 0.00137692 0.0811205 0.0324609 -0.000844198 0.0821647 
0.0390415 -0.00132897 0.0811205 0.0385386 0.00162593 0.0811255 0.0413782 0.000639617 0.0811193 
0.0442324 -0.000411546 0.0811202 0.0486222 -0.000596306 0.0821182 -0.0484922 0.00319322 0.082119 
-0.0448931 0.00463984 0.0811201 -0.0418598 0.00440471 0.0811209 -0.0396542 0.00237105 0.0811196 
-0.0374815 0.00377462 0.0826371 -0.0332043 0.00247416 0.0811203 -0.0348801 0.00496343 0.0811179 
[...]
POINT_DATA 1136
FIELD FieldData 7
id 1 1136 int
207 96 228 273 172 50 151 199 262 
51 11 290 506 48 100 637 277 187 
239 161 279 2 164 412 137 59 741 
394 422 371 499 597 390 297 213 269 
396 675 257 426 854 18 90 180 211 
34 21 193 416 119 113 178 459 492 
590 398 208 184 409 545 719 77 293 
736 496 58 661 191 329 582 171 44 
721 564 46 166 600 790 216 88 304 
583 740 168 527 562 352 548 846 362 
345 619 87 685 495 510 670 618 529 
491 319 289 568 38 433 6 381 94 
342 351 338 750 407 192 480 557 378 
634 549 523 449 645 92 110 72 621 
74 298 408 428 460 522 185 24 287 
421 870 252 169 485 541 702 364 332 
300 594 63 366 709 175 176 606 134 
584 173 830 842 542 515 384 547 435 
310 620 43 98 444 473 222 140 274 
519 149 261 62 272 76 431 138 531 
102 478 367 476 462 69 80 630 128 
221 259 464 4 306 266 153 49 165 
275 331 32 699 250 486 580 28 372 
131 227 86 662 160 318 267 294 382 
183 613 509 521 125 15 39 70 286 
45 280 141 30 124 204 249 665 845 
95 64 237 93 14 334 406 13 10 
238 520 156 209 544 441 561 253 218 
9 154 33 263 370 12 264 688 375 
106 84 241 35 556 202 205 109 162 
130 82 85 354 79 217 197 36 291 
481 356 146 292 775 55 276 104 353 
122 155 245 224 337 159 363 593 255 
442 157 1 215 357 126 317 89 57 
111 22 53 439 212 40 453 3 229 
336 112 179 265 256 490 350 429 312 
144 268 314 20 502 347 543 447 115 
54 285 436 254 427 573 270 244 326 
158 23 399 749 467 143 320 373 446 
322 311 117 235 385 150 397 649 711 
330 339 599 284 555 129 505 494 374 
75 167 305 288 105 61 574 456 8 
569 451 71 295 380 528 768 767 535 
500 558 324 581 530 615 810 369 368 
389 404 120 644 365 651 633 415 804 
349 225 671 788 654 601 536 635 570 
585 706 219 707 653 145 29 83 712 
5 627 108 726 513 782 658 893 488 
468 484 301 567 401 234 174 359 327 
41 470 466 701 533 147 487 465 625 
643 181 188 393 856 728 639 283 200 
201 25 47 17 214 376 801 717 189 
803 313 91 73 587 139 443 420 103 
37 518 42 148 403 391 190 417 455 
571 524 231 686 395 761 31 471 282 
315 101 226 68 335 714 121 379 177 
483 501 623 361 632 194 142 78 477 
195 325 302 281 534 196 307 445 206 
730 440 482 26 99 503 236 432 170 
668 474 869 684 16 198 135 123 251 
242 309 114 60 461 52 81 328 136 
152 56 414 243 7 402 186 344 507 
743 479 739 646 19 831 608 825 614 
457 824 423 624 596 358 595 642 695 
498 538 607 876 278 708 811 690 853 
576 203 677 672 805 816 778 704 969 
97 916 553 258 925 603 667 303 960 
858 723 550 943 752 566 970 565 240 
271 511 868 826 526 806 802 377 733 
848 785 720 694 787 493 554 766 296 
425 713 636 419 66 648 504 909 772 
65 539 617 299 693 230 894 260 659 
563 844 609 666 383 779 517 774 127 
753 827 742 512 829 915 725 655 233 
660 400 132 732 967 588 638 715 878 
703 859 411 734 579 497 833 755 817 
622 163 67 678 589 697 650 463 247 
392 343 452 727 133 776 321 316 896 
770 698 551 664 107 410 765 818 591 
610 921 647 769 812 323 641 823 737 
746 793 418 413 689 560 926 813 731 
756 691 437 722 710 843 430 629 735 
879 954 246 789 696 840 781 887 764 
532 679 864 118 577 907 308 716 508 
540 680 941 676 405 210 794 891 885 
360 475 923 705 777 388 729 771 832 
514 892 472 333 469 552 612 754 652 
355 933 598 687 223 27 835 586 681 
807 450 791 605 762 387 663 978 904 
828 340 673 611 424 683 546 572 537 
516 578 248 751 799 763 758 850 798 
948 800 862 592 682 182 935 718 786 
889 972 454 438 834 220 820 951 757 
759 966 738 944 983 977 489 905 971 
982 849 874 346 628 883 838 795 626 
744 724 897 900 657 888 602 940 981 
747 927 899 863 919 841 839 815 348 
631 809 956 748 232 821 836 882 525 
851 819 955 783 872 913 341 855 559 
616 979 792 871 949 902 939 964 796 
669 674 434 860 745 847 604 700 386 
920 880 963 797 640 808 760 458 976 
692 656 448 898 903 917 930 861 575 
989 875 908 958 910 873 934 918 924 
814 936 929 937 906 959 837 945 822 
857 890 901 938 962 973 911 780 990 
867 886 852 932 986 946 987 991 961 
997 912 773 994 922 784 953 993 116 
865 985 992 928 942 866 877 884 974 
975 895 1008 950 968 1004 1010 998 952 
914 1007 1000 999 988 881 1014 1015 1013 
1020 1021 1023 1011 1019 1005 995 957 931 
1012 1016 1035 984 1022 1001 1029 1025 1030 
1036 1033 1017 1026 1032 1034 1024 1009 1043 
1048 965 1046 1047 947 1038 1031 1040 1039 
1042 1049 1044 1006 980 1054 1056 1061 1058 
1002 996 1055 1051 1050 1057 1045 1053 1018 
1003 1062 1059 1041 1037 1028 1070 1064 1073 
1063 1069 1060 1068 1065 1071 1052 1072 1067 
1081 1066 1027 1085 1082 1074 1083 1079 1076 
1080 1077 1084 1078 1075 1087 1095 1086 1092 
1093 1097 1091 1088 1096 1098 1089 1094 1090 
1103 1106 1111 1101 1105 1108 1104 1110 1107 
1100 1099 1123 1118 1109 1102 1116 1114 1113 
1121 1117 1122 1112 1119 1134 1133 1132 1124 
1130 1120 1115 1129 1136 1126 1131 1135 1125 
1127 1128 
type 1 1136 int
1 1 1 1 1 1 1 1 1 
1 1 1 1 1 1 1 1 1 
1 1 1 1 1 1 1 1 1 
1 1 1 1 1 1 1 1 1 
1 1 1 1 1 1 1 1 1 
1 1 1 1 1 1 1 1 1 
1 1 1 1 1 1 1 1 1 
1 1 1 1 1 1 1 1 1 
1 1 1 1 1 1 1 1 1 
1 1 1 1 1 1 1 1 1 
1 1 1 1 1 1 1 1 1 
1 1 1 1 1 1 1 1 1 
1 1 1 1 1 1 1 1 1 
1 1 1 1 1 1 1 1 1 
1 1 1 1 1 1 1 1 1 
1 1 1 1 1 1 1 1 1 
1 1 1 1 1 1 1 1 1 
1 1 1 1 1 1 1 1 1 
1 1 1 1 1 1 1 1 1 
1 1 1 1 1 1 1 1 1 
1 1 1 1 1 1 1 1 1 
1 1 1 1 1 1 1 1 1 
1 1 1 1 1 1 1 1 1 
1 1 1 1 1 1 1 1 1 
1 1 1 1 1 1 1 1 1 
1 1 1 1 1 1 1 1 1 
1 1 1 1 1 1 1 1 1 
1 1 1 1 1 1 1 1 1 
1 1 1 1 1 1 1 1 1 
1 1 1 1 1 1 1 1 1 
1 1 1 1 1 1 1 1 1 
1 1 1 1 1 1 1 1 1 
1 1 1 1 1 1 1 1 1 
1 1 1 1 1 1 1 1 1 
1 1 1 1 1 1 1 1 1 
1 1 1 1 1 1 1 1 1 
1 1 1 1 1 1 1 1 1 
1 1 1 1 1 1 1 1 1 
1 1 1 1 1 1 1 1 1 
1 1 1 1 1 1 1 1 1 
1 1 1 1 1 1 1 1 1 
1 1 1 1 1 1 1 1 1 
1 1 1 1 1 1 1 1 1 
1 1 1 1 1 1 1 1 1 
1 1 1 1 1 1 1 1 1 
1 1 1 1 1 1 1 1 1 
1 1 1 1 1 1 1 1 1 
1 1 1 1 1 1 1 1 1 
1 1 1 1 1 1 1 1 1 
1 1 1 1 1 1 1 1 1 
1 1 1 1 1 1 1 1 1 
1 1 1 1 1 1 1 1 1 
1 1 1 1 1 1 1 1 1 
1 1 1 1 1 1 1 1 1 
1 1 1 1 1 1 1 1 1 
1 1 1 1 1 1 1 1 1 
1 1 1 1 1 1 1 1 1 
1 1 1 1 1 1 1 1 1 
1 1 1 1 1 1 1 1 1 
1 1 1 1 1 1 1 1 1 
1 1 1 1 1 1 1 1 1 
1 1 1 1 1 1 1 1 1 
1 1 1 1 1 1 1 1 1 
1 1 1 1 1 1 1 1 1 
1 1 1 1 1 1 1 1 1 
1 1 1 1 1 1 1 1 1 
1 1 1 1 1 1 1 1 1 
1 1 1 1 1 1 1 1 1 
1 1 1 1 1 1 1 1 1 
1 1 1 1 1 1 1 1 1 
1 1 1 1 1 1 1 1 1 
1 1 1 1 1 1 1 1 1 
1 1 1 1 1 1 1 1 1 
1 1 1 1 1 1 1 1 1 
1 1 1 1 1 1 1 1 1 
1 1 1 1 1 1 1 1 1 
1 1 1 1 1 1 1 1 1 
1 1 1 1 1 1 1 1 1 
1 1 1 1 1 1 1 1 1 
1 1 1 1 1 1 1 1 1 
1 1 1 1 1 1 1 1 1 
1 1 1 1 1 1 1 1 1 
1 1 1 1 1 1 1 1 1 
1 1 1 1 1 1 1 1 1 
1 1 1 1 1 1 1 1 1 
1 1 1 1 1 1 1 1 1 
1 1 1 1 1 1 1 1 1 
1 1 1 1 1 1 1 1 1 
1 1 1 1 1 1 1 1 1 
1 1 1 1 1 1 1 1 1 
1 1 1 1 1 1 1 1 1 
1 1 1 1 1 1 1 1 1 
1 1 1 1 1 1 1 1 1 
1 1 1 1 1 1 1 1 1 
1 1 1 1 1 1 1 1 1 
1 1 1 1 1 1 1 1 1 
1 1 1 1 1 1 1 1 1 
1 1 1 1 1 1 1 1 1 
1 1 1 1 1 1 1 1 1 
1 1 1 1 1 1 1 1 1 
1 1 1 1 1 1 1 1 1 
1 1 1 1 1 1 1 1 1 
1 1 1 1 1 1 1 1 1 
1 1 1 1 1 1 1 1 1 
1 1 1 1 1 1 1 1 1 
1 1 1 1 1 1 1 1 1 
1 1 1 1 1 1 1 1 1 
1 1 1 1 1 1 1 1 1 
1 1 1 1 1 1 1 1 1 
1 1 1 1 1 1 1 1 1 
1 1 1 1 1 1 1 1 1 
1 1 1 1 1 1 1 1 1 
1 1 1 1 1 1 1 1 1 
1 1 1 1 1 1 1 1 1 
1 1 1 1 1 1 1 1 1 
1 1 1 1 1 1 1 1 1 
1 1 1 1 1 1 1 1 1 
1 1 1 1 1 1 1 1 1 
1 1 1 1 1 1 1 1 1 
1 1 1 1 1 1 1 1 1 
1 1 1 1 1 1 1 1 1 
1 1 1 1 1 1 1 1 1 
1 1 1 1 1 1 1 1 1 
1 1 1 1 1 1 1 1 1 
1 1 1 1 1 1 1 1 1 
1 1 1 1 1 1 1 1 1 
1 1 
i 3 1136 int
0 0 0 0 0 0 0 0 0 
0 0 0 0 0 0 0 0 0 
0 0 0 0 0 0 0 0 0 
0 0 0 0 0 0 0 0 0 
0 0 0 0 0 0 0 0 0 
0 0 0 0 0 0 0 0 0 
0 0 0 0 0 0 0 0 0 
0 0 0 0 0 0 0 0 0 
0 0 0 0 0 0 0 0 0 
0 0 0 0 0 0 0 0 0 
0 0 0 0 0 0 0 0 0 
0 0 0 0 0 0 0 0 0 
0 0 0 0 0 0 0 0 0 
0 0 0 0 0 0 0 0 0 
0 0 0 0 0 0 0 0 0 
0 0 0 0 0 0 0 0 0 
0 0 0 0 0 0 0 0 0 
0 0 0 0 0 0 0 0 0 
0 0 0 0 0 0 0 0 0 
0 0 0 0 0 0 0 0 0 
0 0 0 0 0 0 0 0 0 
0 0 0 0 0 0 0 0 0 
0 0 0 0 0 0 0 0 0 
0 0 0 0 0 0 0 0 0 
0 0 0 0 0 0 0 0 0 
0 0 0 0 0 0 0 0 0 
0 0 0 0 0 0 0 0 0 
0 0 0 0 0 0 0 0 0 
0 0 0 0 0 0 0 0 0 
0 0 0 0 0 0 0 0 0 
0 0 0 0 0 0 0 0 0 
0 0 0 0 0 0 0 0 0 
0 0 0 0 0 0 0 0 0 
0 0 0 0 0 0 0 0 0 
0 0 0 0 0 0 0 0 0 
0 0 0 0 0 0 0 0 0 
0 0 0 0 0 0 0 0 0 
0 0 0 0 0 0 0 0 0 
0 0 0 0 0 0 0 0 0 
0 0 0 0 0 0 0 0 0 
0 0 0 0 0 0 0 0 0 
0 0 0 0 0 0 0 0 0 
0 0 0 0 0 0 0 0 0 
0 0 0 0 0 0 0 0 0 
0 0 0 0 0 0 0 0 0 
0 0 0 0 0 0 0 0 0 
0 0 0 0 0 0 0 0 0 
0 0 0 0 0 0 0 0 0 
0 0 0 0 0 0 0 0 0 
0 0 0 0 0 0 0 0 0 
0 0 0 0 0 0 0 0 0 
0 0 0 0 0 0 0 0 0 
0 0 0 0 0 0 0 0 0 
0 0 0 0 0 0 0 0 0 
0 0 0 0 0 0 0 0 0 
0 0 0 0 0 0 0 0 0 
0 0 0 0 0 0 0 0 0 
0 0 0 0 0 0 0 0 0 
0 0 0 0 0 0 0 0 0 
0 0 0 0 0 0 0 0 0 
0 0 0 0 0 0 0 0 0 
0 0 0 0 0 0 0 0 0 
0 0 0 0 0 0 0 0 0 
0 0 0 0 0 0 0 0 0 
0 0 0 0 0 0 0 0 0 
0 0 0 0 0 0 0 0 0 
0 0 0 0 0 0 0 0 0 
0 0 0 0 0 0 0 0 0 
0 0 0 0 0 0 0 0 0 
0 0 0 0 0 0 0 0 0 
0 0 0 0 0 0 0 0 0 
0 0 0 0 0 0 0 0 0 
0 0 0 0 0 0 0 0 0 
0 0 0 0 0 0 0 0 0 
0 0 0 0 0 0 0 0 0 
0 0 0 0 0 0 0 0 0 
0 0 0 0 0 0 0 0 0 
0 0 0 0 0 0 0 0 0 
0 0 0 0 0 0 0 0 0 
0 0 0 0 0 0 0 0 0 
0 0 0 0 0 0 0 0 0 
0 0 0 0 0 0 0 0 0 
0 0 0 0 0 0 0 0 0 
0 0 0 0 0 0 0 0 0 
0 0 0 0 0 0 0 0 0 
0 0 0 0 0 0 0 0 0 
0 0 0 0 0 0 0 0 0 
0 0 0 0 0 0 0 0 0 
0 0 0 0 0 0 0 0 0 
0 0 0 0 0 0 0 0 0 
0 0 0 0 0 0 0 0 0 
0 0 0 0 0 0 0 0 0 
0 0 0 0 0 0 0 0 0 
0 0 0 0 0 0 0 0 0 
0 0 0 0 0 0 0 0 0 
0 0 0 0 0 0 0 0 0 
0 0 0 0 0 0 0 0 0 
0 0 0 0 0 0 0 0 0 
0 0 0 0 0 0 0 0 0 
0 0 0 0 0 0 0 0 0 
0 0 0 0 0 0 0 0 0 
0 0 0 0 0 0 0 0 0 
0 0 0 0 0 0 0 0 0 
0 0 0 0 0 0 0 0 0 
0 0 0 0 0 0 0 0 0 
0 0 0 0 0 0 0 0 0 
0 0 0 0 0 0 0 0 0 
0 0 0 0 0 0 0 0 0 
0 0 0 0 0 0 0 0 0 
0 0 0 0 0 0 0 0 0 
0 0 0 0 0 0 0 0 0 
0 0 0 0 0 0 0 0 0 
0 0 0 0 0 0 0 0 0 
0 0 0 0 0 0 0 0 0 
0 0 0 0 0 0 0 0 0 
0 0 0 0 0 0 0 0 0 
0 0 0 0 0 0 0 0 0 
0 0 0 0 0 0 0 0 0 
0 0 0 0 0 0 0 0 0 
0 0 0 0 0 0 0 0 0 
0 0 0 0 0 0 0 0 0 
0 0 0 0 0 0 0 0 0 
0 0 0 0 0 0 0 0 0 
0 0 0 0 0 0 0 0 0 
0 0 0 0 0 0 0 0 0 
0 0 0 0 0 0 0 0 0 
0 0 0 0 0 0 0 0 0 
0 0 0 0 0 0 0 0 0 
0 0 0 0 0 0 0 0 0 
0 0 0 0 0 0 0 0 0 
0 0 0 0 0 0 0 0 0 
0 0 0 0 0 0 0 0 0 
0 0 0 0 0 0 0 0 0 
0 0 0 0 0 0 0 0 0 
0 0 0 0 0 0 0 0 0 
0 0 0 0 0 0 0 0 0 
0 0 0 0 0 0 0 0 0 
0 0 0 0 0 0 0 0 0 
0 0 0 0 0 0 0 0 0 
0 0 0 0 0 0 0 0 0 
0 0 0 0 0 0 0 0 0 
0 0 0 0 0 0 0 0 0 
0 0 0 0 0 0 0 0 0 
0 0 0 0 0 0 0 0 0 
0 0 0 0 0 0 0 0 0 
0 0 0 0 0 0 0 0 0 
0 0 0 0 0 0 0 0 0 
0 0 0 0 0 0 0 0 0 
0 0 0 0 0 0 0 0 0 
0 0 0 0 0 0 0 0 0 
0 0 0 0 0 0 0 0 0 
0 0 0 0 0 0 0 0 0 
0 0 0 0 0 0 0 0 0 
0 0 0 0 0 0 0 0 0 
0 0 0 0 0 0 0 0 0 
0 0 0 0 0 0 0 0 0 
0 0 0 0 0 0 0 0 0 
0 0 0 0 0 0 0 0 0 
0 0 0 0 0 0 0 0 0 
0 0 0 0 0 0 0 0 0 
0 0 0 0 0 0 0 0 0 
0 0 0 0 0 0 0 0 0 
0 0 0 0 0 0 0 0 0 
0 0 0 0 0 0 0 0 0 
0 0 0 0 0 0 0 0 0 
0 0 0 0 0 0 0 0 0 
0 0 0 0 0 0 0 0 0 
0 0 0 0 0 0 0 0 0 
0 0 0 0 0 0 0 0 0 
0 0 0 0 0 0 0 0 0 
0 0 0 0 0 0 0 0 0 
0 0 0 0 0 0 0 0 0 
0 0 0 0 0 0 0 0 0 
0 0 0 0 0 0 0 0 0 
0 0 0 0 0 0 0 0 0 
0 0 0 0 0 0 0 0 0 
0 0 0 0 0 0 0 0 0 
0 0 0 0 0 0 0 0 0 
0 0 0 0 0 0 0 0 0 
0 0 0 0 0 0 0 0 0 
0 0 0 0 0 0 0 0 0 
0 0 0 0 0 0 0 0 0 
0 0 0 0 0 0 0 0 0 
0 0 0 0 0 0 0 0 0 
0 0 0 0 0 0 0 0 0 
0 0 0 0 0 0 0 0 0 
0 0 0 0 0 0 0 0 0 
0 0 0 0 0 0 0 0 0 
0 0 0 0 0 0 0 0 0 
0 0 0 0 0 0 0 0 0 
0 0 0 0 0 0 0 0 0 
0 0 0 0 0 0 0 0 0 
0 0 0 0 0 0 0 0 0 
0 0 0 0 0 0 0 0 0 
0 0 0 0 0 0 0 0 0 
0 0 0 0 0 0 0 0 0 
0 0 0 0 0 0 0 0 0 
0 0 0 0 0 0 0 0 0 
0 0 0 0 0 0 0 0 0 
0 0 0 0 0 0 0 0 0 
0 0 0 0 0 0 0 0 0 
0 0 0 0 0 0 0 0 0 
0 0 0 0 0 0 0 0 0 
0 0 0 0 0 0 0 0 0 
0 0 0 0 0 0 0 0 0 
0 0 0 0 0 0 0 0 0 
0 0 0 0 0 0 0 0 0 
0 0 0 0 0 0 0 0 0 
0 0 0 0 0 0 0 0 0 
0 0 0 0 0 0 0 0 0 
0 0 0 0 0 0 0 0 0 
0 0 0 0 0 0 0 0 0 
0 0 0 0 0 0 0 0 0 
0 0 0 0 0 0 0 0 0 
0 0 0 0 0 0 0 0 0 
0 0 0 0 0 0 0 0 0 
0 0 0 0 0 0 0 0 0 
0 0 0 0 0 0 0 0 0 
0 0 0 0 0 0 0 0 0 
0 0 0 0 0 0 0 0 0 
0 0 0 0 0 0 0 0 0 
0 0 0 0 0 0 0 0 0 
0 0 0 0 0 0 0 0 0 
0 0 0 0 0 0 0 0 0 
0 0 0 0 0 0 0 0 0 
0 0 0 0 0 0 0 0 0 
0 0 0 0 0 0 0 0 0 
0 0 0 0 0 0 0 0 0 
0 0 0 0 0 0 0 0 0 
0 0 0 0 0 0 0 0 0 
0 0 0 0 0 0 0 0 0 
0 0 0 0 0 0 0 0 0 
0 0 0 0 0 0 0 0 0 
0 0 0 0 0 0 0 0 0 
0 0 0 0 0 0 0 0 0 
0 0 0 0 0 0 0 0 0 
0 0 0 0 0 0 0 0 0 
0 0 0 0 0 0 0 0 0 
0 0 0 0 0 0 0 0 0 
0 0 0 0 0 0 0 0 0 
0 0 0 0 0 0 0 0 0 
0 0 0 0 0 0 0 0 0 
0 0 0 0 0 0 0 0 0 
0 0 0 0 0 0 0 0 0 
0 0 0 0 0 0 0 0 0 
0 0 0 0 0 0 0 0 0 
0 0 0 0 0 0 0 0 0 
0 0 0 0 0 0 0 0 0 
0 0 0 0 0 0 0 0 0 
0 0 0 0 0 0 0 0 0 
0 0 0 0 0 0 0 0 0 
0 0 0 0 0 0 0 0 0 
0 0 0 0 0 0 0 0 0 
0 0 0 0 0 0 0 0 0 
0 0 0 0 0 0 0 0 0 
0 0 0 0 0 0 0 0 0 
0 0 0 0 0 0 0 0 0 
0 0 0 0 0 0 0 0 0 
0 0 0 0 0 0 0 0 0 
0 0 0 0 0 0 0 0 0 
0 0 0 0 0 0 0 0 0 
0 0 0 0 0 0 0 0 0 
0 0 0 0 0 0 0 0 0 
0 0 0 0 0 0 0 0 0 
0 0 0 0 0 0 0 0 0 
0 0 0 0 0 0 0 0 0 
0 0 0 0 0 0 0 0 0 
0 0 0 0 0 0 0 0 0 
0 0 0 0 0 0 0 0 0 
0 0 0 0 0 0 0 0 0 
0 0 0 0 0 0 0 0 0 
0 0 0 0 0 0 0 0 0 
0 0 0 0 0 0 0 0 0 
0 0 0 0 0 0 0 0 0 
0 0 0 0 0 0 0 0 0 
0 0 0 0 0 0 0 0 0 
0 0 0 0 0 0 0 0 0 
0 0 0 0 0 0 0 0 0 
0 0 0 0 0 0 0 0 0 
0 0 0 0 0 0 0 0 0 
0 0 0 0 0 0 0 0 0 
0 0 0 0 0 0 0 0 0 
0 0 0 0 0 0 0 0 0 
0 0 0 0 0 0 0 0 0 
0 0 0 0 0 0 0 0 0 
0 0 0 0 0 0 0 0 0 
0 0 0 0 0 0 0 0 0 
0 0 0 0 0 0 0 0 0 
0 0 0 0 0 0 0 0 0 
0 0 0 0 0 0 0 0 0 
0 0 0 0 0 0 0 0 0 
0 0 0 0 0 0 0 0 0 
0 0 0 0 0 0 0 0 0 
0 0 0 0 0 0 0 0 0 
0 0 0 0 0 0 0 0 0 
0 0 0 0 0 0 0 0 0 
0 0 0 0 0 0 0 0 0 
0 0 0 0 0 0 0 0 0 
0 0 0 0 0 0 0 0 0 
0 0 0 0 0 0 0 0 0 
0 0 0 0 0 0 0 0 0 
0 0 0 0 0 0 0 0 0 
0 0 0 0 0 0 0 0 0 
0 0 0 0 0 0 0 0 0 
0 0 0 0 0 0 0 0 0 
0 0 0 0 0 0 0 0 0 
0 0 0 0 0 0 0 0 0 
0 0 0 0 0 0 0 0 0 
0 0 0 0 0 0 0 0 0 
0 0 0 0 0 0 0 0 0 
0 0 0 0 0 0 0 0 0 
0 0 0 0 0 0 0 0 0 
0 0 0 0 0 0 0 0 0 
0 0 0 0 0 0 0 0 0 
0 0 0 0 0 0 0 0 0 
0 0 0 0 0 0 0 0 0 
0 0 0 0 0 0 0 0 0 
0 0 0 0 0 0 0 0 0 
0 0 0 0 0 0 0 0 0 
0 0 0 0 0 0 0 0 0 
0 0 0 0 0 0 0 0 0 
0 0 0 0 0 0 0 0 0 
0 0 0 0 0 0 0 0 0 
0 0 0 0 0 0 0 0 0 
0 0 0 0 0 0 0 0 0 
0 0 0 0 0 0 0 0 0 
0 0 0 0 0 0 0 0 0 
0 0 0 0 0 0 0 0 0 
0 0 0 0 0 0 0 0 0 
0 0 0 0 0 0 0 0 0 
0 0 0 0 0 0 0 0 0 
0 0 0 0 0 0 0 0 0 
0 0 0 0 0 0 0 0 0 
0 0 0 0 0 0 0 0 0 
0 0 0 0 0 0 0 0 0 
0 0 0 0 0 0 0 0 0 
0 0 0 0 0 0 0 0 0 
0 0 0 0 0 0 0 0 0 
0 0 0 0 0 0 0 0 0 
0 0 0 0 0 0 0 0 0 
0 0 0 0 0 0 0 0 0 
0 0 0 0 0 0 0 0 0 
0 0 0 0 0 0 0 0 0 
0 0 0 0 0 0 0 0 0 
0 0 0 0 0 0 0 0 0 
0 0 0 0 0 0 0 0 0 
0 0 0 0 0 0 0 0 0 
0 0 0 0 0 0 0 0 0 
0 0 0 0 0 0 0 0 0 
0 0 0 0 0 0 0 0 0 
0 0 0 0 0 0 0 0 0 
0 0 0 0 0 0 0 0 0 
0 0 0 0 0 0 0 0 0 
0 0 0 0 0 0 0 0 0 
0 0 0 0 0 0 0 0 0 
0 0 0 0 0 0 0 0 0 
0 0 0 0 0 0 0 0 0 
0 0 0 0 0 0 0 0 0 
0 0 0 0 0 0 0 0 0 
0 0 0 0 0 0 0 0 0 
0 0 0 0 0 0 0 0 0 
0 0 0 0 0 0 0 0 0 
0 0 0 0 0 0 0 0 0 
0 0 0 0 0 0 0 0 0 
0 0 0 0 0 0 0 0 0 
0 0 0 0 0 0 0 0 0 
0 0 0 0 0 0 0 0 0 
0 0 0 0 0 0 0 0 0 
0 0 0 0 0 0 0 0 0 
0 0 0 0 0 0 0 0 0 
0 0 0 0 0 0 0 0 0 
0 0 0 0 0 0 0 0 0 
0 0 0 0 0 0 0 0 0 
0 0 0 0 0 0 0 0 0 
0 0 0 0 0 0 0 0 0 
0 0 0 0 0 0 0 0 0 
0 0 0 0 0 0 0 0 0 
0 0 0 0 0 0 0 0 0 
0 0 0 0 0 0 
v 3 1136 double
-0.0591438 0.0272789 -0.0092188 -0.0147449 0.0041559 1.03704e-13 0.00469478 0.00404979 0.00942326 
-0.0191462 0.00675677 -5.31562e-05 0.00262901 -0.00240854 -0.0227816 0.0358419 0.0111772 0.0034259 
0.00274423 0.00770501 0.00219853 0.010929 -0.0128113 0.00191794 0.0711176 -0.0373606 0.0169315 
0.00266025 0.00586936 -0.000377274 0.0355879 0.0208759 0.0108144 0.0215242 -0.00189574 -0.00690472 
0.00303073 -0.0528846 -0.0372767 0.000301904 0.0268151 0.00223562 -0.00249254 -0.027277 0.010088 
0.00933908 -0.0197047 0.000422382 0.0815171 -0.0906438 -0.0185657 0.0154437 0.00343456 -0.0147458 
0.00324691 0.0208716 0.000878582 -0.0247844 -0.000882996 0.00290212 -0.0467371 0.0029367 -0.00232354 
0.00718869 -0.0193391 0.00132195 -0.00632484 0.00460461 3.10026e-05 0.015081 0.00664384 -0.000243609 
-0.0931939 0.0295345 -0.0812598 0.0150063 -0.00298567 -8.85233e-06 0.0242524 -0.00760212 -3.26781e-07 
0.0125128 -0.00479276 -0.00287941 -0.00771125 0.00229718 -0.0131185 0.01706 -0.0324843 0.0141678 
-0.0294104 0.0361702 0.00939438 -0.0024294 -0.0106657 -0.00404483 -0.0089271 0.00332959 -0.00913906 
0.0187261 0.00662075 0.00421488 0.00810394 -0.017489 0.00718181 0.00989177 0.0695562 0.0634218 
0.0023928 -0.029917 0.0100834 -0.0297586 -0.0410528 0.000379176 0.0116919 0.0728491 -0.0201079 
-0.119432 0.112999 -0.106959 -0.0321445 -0.000569069 0.0038663 0.00622027 -0.0135084 -0.0085774 
0.00175414 -0.0185707 -0.00952604 0.000776737 0.00483261 -0.00487674 0.000378253 0.00290938 -0.00713429 
-0.0315695 0.00244204 0.00581971 -0.0435889 -0.0478358 0.0759818 -0.028824 -0.0830845 -0.0247015 
0.0285667 0.0234348 -0.0631997 0.0450516 0.0044273 0.00433809 0.0253277 -0.00292326 -0.000113931 
-0.0491431 -0.0544407 0.00475502 -0.0391501 -0.0970956 0.0429828 0.00255331 0.0118058 -0.000364305 
0.00631492 0.0261495 -0.031344 -0.0139707 0.0199946 -0.00495149 -0.0372479 0.0472123 0.105683 
-0.0179174 -0.0149011 -0.0082531 0.00618152 -0.0469205 -0.00356268 0.00219863 0.00279595 -0.00616361 
0.0098974 0.000410596 -0.00220196 -0.00342929 0.00730419 -0.000596278 -0.0125758 0.0163301 -0.0159266 
0.00247371 0.0341548 -0.0218844 -0.0240387 0.0193205 0.00379743 -0.0140182 0.0275143 -0.00341126 
0.0335986 -0.0563901 0.0548794 0.0195315 0.0196593 0.000238741 -0.0444944 0.0309116 0.0178563 
-0.0116023 0.0343018 -0.00409321 -0.0950263 -0.0527879 -0.0180264 -0.072822 -0.0375156 -0.0424216 
0.016486 -0.0362431 -0.0248813 -0.00885419 0.0222916 -0.0146237 0.00688651 0.0407096 -0.000867298 
0.0194597 -0.0488064 -0.0315478 0.0233564 -0.0155843 -0.0088744 0.0466684 0.0724108 0.0849631 
-0.00860864 -0.00900417 0.000175351 0.00813129 0.00335469 -0.0287511 -0.0118255 -0.00102677 -0.0190716 
-0.00418133 0.0259962 -0.00463075 -0.00441416 0.0234058 -6.7211e-08 -0.00113 0.00706926 0.000116804 
0.00697374 0.0151154 -9.28367e-05 -0.0300394 0.0363277 0.00368033 -0.0879398 0.0166599 0.0018196 
-0.0592193 0.0810373 -0.000881993 -0.0678617 0.0285482 0.00140798 -0.055438 0.0476078 0.0225801 
-0.0606805 -0.0334065 -0.0543471 -0.0448413 -0.00414527 0.00130011 -0.0351121 0.15617 0.0979806 
0.0919523 0.053868 0.00437397 0.0388882 0.00662631 -0.0152249 0.00951278 0.0333409 -0.0426859 
0.0953156 0.0600695 -0.000880198 -0.0117713 0.0181023 -0.00796501 -0.0318578 0.00824927 0.00116716 
0.00065661 0.0310979 0.0166802 0.0039091 0.00874559 -0.0010339 -0.00836523 -0.00812348 -0.00099343 
-0.017302 0.00671843 -0.00681662 -0.0576702 -0.0203196 -0.0076329 -0.0383485 0.0183158 -0.00684194 
-0.0515531 -0.00854633 0.000529653 -0.0542746 0.00678994 0.00239786 -0.0280333 0.0242228 0.00251855 
-0.0185994 0.0160087 -0.00161944 -0.0181787 0.0408173 -0.00992897 -0.0222902 0.0432186 0.00187263 
-0.0267836 0.018166 -0.000690378 -0.0153119 -0.00209997 6.80444e-10 -0.0149885 0.00664627 0.0160903 
0.0415696 0.0742293 -0.0154453 0.0386513 0.0582013 0.00957925 0.00720888 0.0425335 3.90408e-06 
-0.0347025 0.0898116 0.0053532 0.0142461 -0.00949366 -2.85159e-06 -0.0530407 -0.00180487 0.0106017 
-0.0114403 -0.00966684 -0.000127658 -0.00313924 -0.0114975 6.24819e-08 -0.0127925 0.00872186 -0.000581114 
-0.0101112 -0.0165106 0.00159569 -0.0142073 -0.0132475 0.00138559 -0.00944732 -0.0138756 0.000297747 
-0.00803147 -0.00902761 -0.000887536 0.0119017 0.00292722 -0.00685076 -0.0148297 -0.00216011 -0.000235002 
-0.0432091 -0.00348272 0.000323647 -0.0555606 0.0223863 -0.106146 -0.0441723 0.0228822 0.00841238 
-0.0113573 -0.0022 -0.000594068 -0.01627 -0.00971087 0.000832194 0.0149954 -0.00520205 -0.0020102 
-0.00672925 0.0422837 -0.000481201 -0.0441313 0.00969779 0.00176606 0.00690724 -0.0208665 -0.00189868 
0.0107726 0.00906415 -0.01787 -0.0110782 0.0287975 -0.0118313 -0.0410775 0.0422476 0.00164292 
0.00559792 0.0333867 -0.000444618 0.0122391 -0.00725803 -3.12345e-06 -0.0185631 -0.0241396 5.33074e-05 
-0.0223239 0.0411084 -0.0189549 -0.0013588 0.00403151 -9.36199e-05 -0.0125541 -0.0157107 0.000124095 
0.0109203 -0.0155909 0.00104336 -0.00753057 -0.0102048 -0.000560215 -0.000274601 0.00301994 -7.14558e-13 
0.00309846 -0.00391977 3.02926e-05 0.0291726 0.0167888 0.0201331 -0.00642258 -0.00445713 -0.00250039 
-0.00390267 -0.00176927 -0.00415185 0.0233039 -0.00394578 0.0182129 0.0214412 -0.0037996 -0.00352173 
0.0334639 0.0517832 0.00936954 0.0200649 -0.0034814 -0.00539574 0.0247865 0.00991303 0.00267838 
-0.0115465 -0.0133638 -0.0209262 -0.0413054 0.0360218 -2.26644e-05 -0.0175865 0.0113844 0.000707157 
-0.00739584 0.0368533 0.00723417 0.0100392 -0.0139661 3.33559e-06 0.00755491 -0.0053546 0.000643797 
0.00890381 -0.00571765 0.000699759 -0.016387 0.0106571 0.000336099 0.00113636 -0.0138608 0.00073177 