# vtk DataFile Version 4.0
Generated by LIGGGHTS
ASCII
DATASET POLYDATA
POINTS 820 float
-0.0128081 -0.0478953 0.0811205 -0.00959298 -0.0487131 0.0811201 -0.00442076 -0.0486705 0.08112 
-0.0003698 -0.049617 0.0811204 0.00336637 -0.0481909 0.0821183 0.00814616 -0.048953 0.0811205 
0.0121914 -0.0481484 0.0811305 -0.0196533 -0.0456193 0.0811205 -0.022505 -0.0442272 0.0811205 
-0.0158169 -0.0463335 0.0811205 -0.0100007 -0.0450104 0.0811205 -0.00549935 -0.0458617 0.0811257 
-0.00217426 -0.0439763 0.0811186 -0.000771381 -0.0466292 0.0811205 0.00714007 -0.0461246 0.08112 
0.0103367 -0.0457919 0.0811202 0.0160907 -0.0467584 0.0811205 0.0189356 -0.0457859 0.0811205 
0.0227269 -0.0442156 0.0811185 -0.0253451 -0.0415774 0.0822413 -0.0201433 -0.0423361 0.081113 
-0.012644 -0.0434733 0.0811159 -0.0100482 -0.041586 0.0811194 -0.00719227 -0.0429445 0.0811174 
-0.00348409 -0.040338 0.0811192 0.0117004 -0.0421678 0.0821182 0.0169756 -0.0423775 0.0821183 
0.0217325 -0.0413898 0.0811274 0.0253256 -0.0426691 0.0811205 0.0285471 -0.0406643 0.0811205 
-0.0293611 -0.0386372 0.0827762 -0.0248377 -0.037366 0.0811214 -0.0210615 -0.0385548 0.0821191 
-0.0076042 -0.0401998 0.0822419 -2.7602e-05 -0.0376732 0.0821682 0.00546587 -0.0383083 0.0821153 
0.0105818 -0.0372789 0.0821162 0.0155725 -0.037578 0.0821107 0.0196665 -0.0390459 0.0811205 
0.0248116 -0.0388285 0.0821183 0.0312485 -0.0384289 0.0812571 -0.0367044 -0.0334267 0.0811205 
-0.0331623 -0.0354498 0.0821209 -0.0271728 -0.035121 0.0811747 -0.0228337 -0.035099 0.081193 
-0.0129915 -0.0338158 0.0814107 -0.00863689 -0.0363412 0.0821176 -0.00599363 -0.0330488 0.0811205 
0.00403931 -0.0337106 0.0811821 0.0077556 -0.0346049 0.0811196 0.0131878 -0.0333571 0.0822185 
0.0185039 -0.0341833 0.0811205 0.0213832 -0.0355547 0.0812772 0.0250368 -0.0338326 0.0821183 
0.0350443 -0.0349974 0.0811205 -0.0384549 -0.0308308 0.0811205 -0.0323617 -0.0301555 0.0811244 
-0.028844 -0.0314549 0.081115 -0.0258434 -0.0316943 0.0811998 -0.0223842 -0.0310349 0.0811361 
-0.0155968 -0.030533 0.0811205 -0.00989471 -0.0314488 0.0826458 0.000133118 -0.0327626 0.0811209 
0.0113037 -0.0303888 0.0811205 0.0212299 -0.0304703 0.0827979 0.0337077 -0.0304986 0.0821186 
0.0390652 -0.0305194 0.0811205 -0.0400022 -0.0282276 0.0811205 -0.0358414 -0.0293094 0.0811205 
-0.0321951 -0.0266255 0.0811212 -0.0287307 -0.0284624 0.0811202 -0.0252453 -0.0283953 0.0810924 
-0.0195066 -0.0284159 0.082117 -0.0159076 -0.0266939 0.0811213 -0.00704267 -0.0265537 0.0811205 
-0.00419482 -0.0291799 0.0821183 0.000237786 -0.029557 0.0811522 0.00892561 -0.0274562 0.0811183 
0.0119089 -0.0271501 0.0811204 0.0148125 -0.0282049 0.0811205 0.0183179 -0.0269714 0.0811205 
0.0244594 -0.0270462 0.0811213 0.0291289 -0.0295088 0.0811216 0.0276271 -0.0268499 0.0811685 
-0.0373606 -0.0262242 0.0811205 -0.0400039 -0.0238555 0.0811205 -0.0290423 -0.0241588 0.0811223 
-0.0258926 -0.0253346 0.0811172 -0.0230066 -0.0263173 0.0811199 -0.0192099 -0.0235942 0.0811205 
-0.0131342 -0.025234 0.0811205 -0.0164084 -0.0234324 0.0823762 -0.0105566 -0.0235164 0.0811214 
0.00523754 -0.023299 0.0810334 0.0082332 -0.0245322 0.0811257 0.0157032 -0.0253194 0.0811205 
0.0216567 -0.0237236 0.0821301 0.0317987 -0.0256665 0.0821206 0.0355311 -0.0235859 0.0811205 
0.0369548 -0.0262602 0.0811271 0.0401285 -0.0250964 0.0811507 -0.0455469 -0.019797 0.0811204 
-0.0416888 -0.019456 0.0821188 -0.0363841 -0.0224124 0.0821154 -0.0309216 -0.021007 0.0811205 
-0.025792 -0.0214493 0.082147 -0.0221237 -0.0227207 0.0811333 -0.0135428 -0.0210959 0.0811205 
-0.000240069 -0.0221674 0.082262 0.00732428 -0.019879 0.082119 0.0117927 -0.0221153 0.0822358 
0.0172599 -0.0222672 0.0811406 0.0245647 -0.0211462 0.0811225 0.0351114 -0.0205948 0.0811205 
0.0385187 -0.0224509 0.0811205 0.0448461 -0.020716 0.0811205 -0.0322762 -0.0167409 0.0821179 
-0.0285667 -0.0179516 0.0812256 -0.0256935 -0.0168461 0.0814187 -0.018746 -0.0179228 0.0811217 
-0.0161105 -0.016458 0.0811201 -0.0126986 -0.0181989 0.0811205 0.000439376 -0.0171687 0.0824387 
0.00587255 -0.0161605 0.0811205 0.00911921 -0.0163697 0.0811205 0.0133716 -0.0186887 0.0810869 
0.0194438 -0.0167269 0.0821143 0.0232602 -0.018312 0.0811205 0.0263814 -0.0169541 0.0811181 
0.0312854 -0.019292 0.0821187 0.0353115 -0.0173924 0.0811193 0.0390023 -0.018582 0.0821186 
-0.0470589 -0.0157256 0.0811117 -0.0440023 -0.0152239 0.0811205 -0.0402663 -0.0135509 0.0821498 
-0.0302599 -0.0128808 0.0811205 -0.0268572 -0.0137104 0.0811872 -0.0197217 -0.0149682 0.0811196 
-0.0215108 -0.012566 0.0812481 -0.017275 -0.0127341 0.0811203 -0.013512 -0.0149426 0.081215 
-0.0111638 -0.0130794 0.0811204 -0.00331912 -0.0141117 0.0821383 0.0064336 -0.0123294 0.0821183 
0.0128279 -0.0149142 0.0821216 0.0274632 -0.0132399 0.082118 0.0357176 -0.0142744 0.0811204 
0.0393489 -0.014216 0.0811194 0.0419166 -0.0157846 0.0811205 0.0421439 -0.0127332 0.0811205 
0.0460517 -0.0155249 0.0821183 -0.0466155 -0.0114012 0.0821179 -0.0427965 -0.00991002 0.0811205 
-0.0350673 -0.0116317 0.0811205 -0.025961 -0.0103886 0.0811341 -0.0224247 -0.00876681 0.0820993 
-0.0186948 -0.0099067 0.0811368 -0.0113691 -0.00944307 0.0811205 -0.0082887 -0.0103952 0.0811205 
-0.00267439 -0.00959764 0.0821191 0.00118935 -0.0109546 0.0811205 0.0100877 -0.0092183 0.0811205 
0.0142042 -0.0113081 0.0811201 0.0200846 -0.0106919 0.0821203 0.0238865 -0.0115592 0.0811205 
0.02974 -0.00943306 0.0811205 0.033227 -0.0113056 0.0821183 0.0373269 -0.0109462 0.0811205 
0.0480525 -0.0120322 0.08112 -0.0484813 -0.00729554 0.0811205 -0.0440872 -0.00565201 0.0821675 
-0.0369903 -0.00605572 0.0824252 -0.0399071 -0.00559163 0.0811205 -0.0261691 -0.00730311 0.0811201 
-0.0170793 -0.00738047 0.0811205 -0.0143348 -0.00872853 0.0811197 -0.0126184 -0.00626759 0.0811206 
-0.00953192 -0.00705605 0.0811205 -0.00602487 -0.00765773 0.0811191 0.000592713 -0.00581441 0.0821188 
0.00336423 -0.00874114 0.0811206 0.00501154 -0.00614065 0.0811198 0.00717591 -0.00837043 0.0811205 
0.0180129 -0.00717445 0.0811205 0.021925 -0.0072816 0.0811177 0.0258161 -0.00808382 0.0821183 
0.039901 -0.00707493 0.0811205 0.0435275 -0.00856947 0.0821183 0.0466783 -0.00609049 0.0811205 
0.0489793 -0.00808217 0.0811205 -0.0456489 -0.0021154 0.0811206 -0.0287333 -0.00312936 0.0811341 
-0.0259048 -0.00411451 0.0811212 -0.0230246 -0.00493838 0.0811188 -0.0209307 -0.00279156 0.0811212 
-0.0188177 -0.00492517 0.0811205 -0.0158253 -0.00465285 0.0811203 -0.0132273 -0.00315292 0.0811194 
-0.0103964 -0.00416845 0.0811204 -0.0072336 -0.00483669 0.0811203 -0.00422722 -0.00435408 0.0811205 
0.00245302 -0.00239118 0.0811207 0.0080555 -0.00375089 0.0821209 0.0164394 -0.00328589 0.0811205 
0.0192659 -0.00429106 0.0811205 0.0356932 -0.00247916 0.0811206 0.0423593 -0.00470619 0.0811204 
0.0466447 -0.00207879 0.0821183 0.0494193 -0.00478127 0.0811205 -0.0415915 -0.000935972 0.0821183 
-0.0388185 0.00178008 0.0811213 -0.0339071 -0.000710428 0.0821292 -0.0299983 -0.000412623 0.0811193 
-0.0266076 -0.000550617 0.0811205 -0.0227511 0.000628415 0.0821178 -0.0139249 -0.000237124 0.0811208 
-0.00882063 -0.00160515 0.0811205 -0.00591811 -0.00084333 0.0811206 -0.00112335 -0.000823824 0.0821185 
0.00511123 0.000483526 0.0821227 0.0120783 -0.000788771 0.0821191 0.0159182 -0.000248275 0.0811205 
0.0189087 -0.00109594 0.0811205 0.0215665 0.000482698 0.0811184 0.0269639 0.000460493 0.0811205 
0.0315635 -0.000774675 0.0821181 0.0415041 -0.00091783 0.0821156 -0.0495197 0.00260666 0.0811205 
-0.0432465 0.00489583 0.0821183 -0.0389737 0.00477411 0.0811198 -0.0359855 0.00286719 0.0811205 
-0.0318278 0.00269331 0.0811205 -0.0288302 0.00237517 0.0811205 -0.0274347 0.00503576 0.0811205 
-0.0200594 0.00344209 0.0811206 -0.014969 0.00369468 0.082116 -0.00995829 0.00239121 0.0822178 
-0.00493287 0.00284463 0.0824137 0.00158819 0.00376122 0.0811236 0.00920442 0.00335451 0.0821274 
0.0143095 0.00251667 0.0811205 0.0127651 0.00515676 0.0811205 0.0174051 0.00241379 0.0811205 
0.0207175 0.00454455 0.0821182 0.0251429 0.00291175 0.0811204 0.030136 0.00302728 0.0811205 
0.0337986 0.00239166 0.0811205 0.0368069 0.00208574 0.0811202 0.041573 0.00476494 0.0811205 
0.0442532 0.0024205 0.0815225 0.0483764 0.00308365 0.0834182 -0.0482982 0.00634507 0.0821157 
-0.0399409 0.00762536 0.0811204 -0.0353959 0.00590381 0.0811205 -0.0310618 0.00668875 0.0821189 
-0.0235903 0.00584604 0.0821186 -0.0189321 0.00654207 0.0811205 -0.00988168 0.00748052 0.0822359 
-0.00186192 0.00549004 0.0811182 0.00402366 0.00563412 0.0811318 0.00974353 0.00729862 0.0811205 
0.0167805 0.00579467 0.0811205 0.0251242 0.0059115 0.0811199 0.0283775 0.00545788 0.0811205 
0.0322377 0.00653842 0.08112 0.0383221 0.00849764 0.082124 -0.0469846 0.0114786 0.0821164 
-0.043783 0.00876392 0.0811197 -0.0402397 0.0120688 0.0821167 -0.0364068 0.00892326 0.081177 
-0.0331337 0.0113319 0.0822169 -0.0288636 0.00987486 0.0811168 -0.0210486 0.0103397 0.0821863 
-0.0156891 0.00901845 0.0821183 -0.000897491 0.00844006 0.0816045 0.0062666 0.00939722 0.0825778 
0.0125053 0.0101186 0.0813169 0.0161594 0.00960233 0.0811205 0.021544 0.0095388 0.0821179 
0.026744 0.00944162 0.0821167 0.0443599 0.00890523 0.0811205 0.0487982 0.00956859 0.0811173 
-0.0286089 0.0136247 0.0824793 -0.0218203 0.0148156 0.081121 -0.0139043 0.0124889 0.0811205 
0.0270218 0.0133646 0.0811808 0.0302882 0.0140948 0.0812036 0.0413873 0.012656 0.0821192 
0.0463834 0.0125885 0.0821179 -0.0455339 0.0162622 0.0821176 -0.0415867 0.0166122 0.0811209 
-0.0385809 0.0190608 0.0821175 -0.0323878 0.0176799 0.0811391 -0.0121027 0.0159235 0.0821189 
0.00138818 0.0175785 0.0826615 0.0259372 0.0161958 0.0811205 0.046209 0.0169767 0.0811205 
-0.0432495 0.0217495 0.0821167 -0.0355845 0.0218074 0.081469 -0.0317638 0.0209253 0.0812372 
-0.0271302 0.0210506 0.0822552 -0.0184837 0.02193 0.0811205 -0.0151215 0.0198624 0.0811208 
-0.0120032 0.0210213 0.0811225 -0.00770123 0.019416 0.0810704 -0.00342207 0.0209975 0.0821181 
0.0171778 0.020493 0.0811205 0.0227446 0.0224801 0.0812413 0.0272845 0.0202455 0.0813559 
[...]
POINT_DATA 820
FIELD FieldData 7
id 1 820 int
51 207 228 273 172 50 151 262 199 
11 278 48 59 100 277 187 239 161 
279 2 164 290 113 137 178 371 257 
426 390 18 297 213 269 396 459 182 
590 398 203 208 409 180 211 34 193 
191 171 192 87 492 46 166 97 184 
216 77 168 293 21 329 548 362 619 
495 449 319 289 88 304 433 496 58 
94 342 407 489 480 510 549 523 303 
454 600 529 38 428 6 562 352 287 
351 338 252 541 378 364 332 92 366 
110 74 176 134 460 584 185 24 515 
435 310 43 98 300 63 72 175 425 
261 173 62 76 542 486 102 478 367 
462 493 444 473 377 222 274 149 183 
266 49 299 165 275 431 250 547 28 
372 80 227 86 140 128 221 259 382 
306 125 15 39 32 138 30 124 84 
95 131 69 202 14 406 267 294 156 
509 383 218 70 286 45 280 141 55 
204 375 249 64 237 93 109 160 10 
238 354 441 253 9 356 154 33 263 
370 12 163 276 106 353 35 363 13 
130 82 209 217 197 36 291 53 212 
292 264 232 3 104 155 122 112 224 
159 247 85 79 126 57 89 111 22 
115 54 40 436 427 270 229 244 336 
158 179 337 350 205 255 442 157 1 
314 20 347 447 150 285 254 339 129 
326 23 265 256 411 144 268 322 311 
117 543 385 397 649 284 324 505 374 
399 429 312 235 451 71 75 467 320 
373 105 61 120 8 295 589 581 368 
29 470 365 5 415 349 225 380 246 
558 570 167 219 288 174 145 83 25 
466 214 108 513 487 313 536 504 234 
327 41 403 118 190 533 189 147 395 
465 301 401 37 200 201 47 17 148 
376 391 360 468 484 188 393 103 42 
68 335 302 455 475 231 181 73 139 
443 282 142 315 101 226 195 325 417 
121 379 483 177 307 91 206 31 471 
26 99 236 534 445 440 16 198 135 
281 123 170 242 309 114 60 52 81 
328 251 136 152 56 243 7 186 344 
96 479 457 507 506 423 412 119 44 
394 422 597 491 538 582 345 576 583 
527 416 661 557 526 90 258 626 240 
298 522 438 381 421 169 485 634 476 
645 271 65 647 662 384 580 620 296 
408 4 419 554 594 519 521 539 153 
531 463 464 561 517 132 331 230 318 
544 233 127 241 245 556 452 146 67 
321 316 520 133 439 453 162 490 343 
215 357 317 502 528 573 392 107 143 
341 446 654 323 560 404 644 569 651 
524 593 389 456 627 500 305 532 388 
577 598 601 635 418 420 430 359 210 
308 488 508 518 333 469 664 571 116 
503 477 514 501 472 27 194 78 355 
196 474 461 482 432 424 414 516 248 
402 340 458 358 19 624 596 603 564 
499 553 511 568 607 565 550 272 660 
650 346 617 621 260 400 613 334 609 
481 512 630 525 66 348 410 551 574 
615 530 599 678 633 616 413 283 405 
639 612 540 437 386 663 223 605 361 
387 450 537 572 608 614 592 642 667 
636 545 591 330 638 494 555 629 559 
653 369 434 673 220 498 575 631 585 
643 579 668 595 622 552 448 675 671 
604 648 497 586 578 682 657 588 683 
677 641 563 610 602 611 632 546 685 
690 606 535 625 679 637 672 688 701 
652 689 699 676 656 655 702 693 698 
696 697 567 623 618 694 704 670 665 
669 703 692 684 587 708 713 640 566 
711 700 695 709 706 717 715 714 687 
716 712 724 725 705 718 681 674 721 
658 722 723 628 727 726 728 730 719 
737 729 742 666 731 734 646 743 738 
659 735 740 707 680 741 744 733 751 
750 746 720 736 745 754 691 748 752 
747 755 753 756 686 749 710 739 732 
767 758 765 764 761 762 769 760 757 
763 766 768 759 778 779 776 777 781 
775 773 782 770 774 780 772 771 786 
784 789 793 787 785 792 783 788 791 
790 794 798 805 806 800 797 807 799 
803 795 802 813 804 801 796 818 810 
817 819 808 816 820 811 814 809 815 
812 
type 1 820 int
1 1 1 1 1 1 1 1 1 
1 1 1 1 1 1 1 1 1 
1 1 1 1 1 1 1 1 1 
1 1 1 1 1 1 1 1 1 
1 1 1 1 1 1 1 1 1 
1 1 1 1 1 1 1 1 1 
1 1 1 1 1 1 1 1 1 
1 1 1 1 1 1 1 1 1 
1 1 1 1 1 1 1 1 1 
1 1 1 1 1 1 1 1 1 
1 1 1 1 1 1 1 1 1 
1 1 1 1 1 1 1 1 1 
1 1 1 1 1 1 1 1 1 
1 1 1 1 1 1 1 1 1 
1 1 1 1 1 1 1 1 1 
1 1 1 1 1 1 1 1 1 
1 1 1 1 1 1 1 1 1 
1 1 1 1 1 1 1 1 1 
1 1 1 1 1 1 1 1 1 
1 1 1 1 1 1 1 1 1 
1 1 1 1 1 1 1 1 1 
1 1 1 1 1 1 1 1 1 
1 1 1 1 1 1 1 1 1 
1 1 1 1 1 1 1 1 1 
1 1 1 1 1 1 1 1 1 
1 1 1 1 1 1 1 1 1 
1 1 1 1 1 1 1 1 1 
1 1 1 1 1 1 1 1 1 
1 1 1 1 1 1 1 1 1 
1 1 1 1 1 1 1 1 1 
1 1 1 1 1 1 1 1 1 
1 1 1 1 1 1 1 1 1 
1 1 1 1 1 1 1 1 1 
1 1 1 1 1 1 1 1 1 
1 1 1 1 1 1 1 1 1 
1 1 1 1 1 1 1 1 1 
1 1 1 1 1 1 1 1 1 
1 1 1 1 1 1 1 1 1 
1 1 1 1 1 1 1 1 1 
1 1 1 1 1 1 1 1 1 
1 1 1 1 1 1 1 1 1 
1 1 1 1 1 1 1 1 1 
1 1 1 1 1 1 1 1 1 
1 1 1 1 1 1 1 1 1 
1 1 1 1 1 1 1 1 1 
1 1 1 1 1 1 1 1 1 
1 1 1 1 1 1 1 1 1 
1 1 1 1 1 1 1 1 1 
1 1 1 1 1 1 1 1 1 
1 1 1 1 1 1 1 1 1 
1 1 1 1 1 1 1 1 1 
1 1 1 1 1 1 1 1 1 
1 1 1 1 1 1 1 1 1 
1 1 1 1 1 1 1 1 1 
1 1 1 1 1 1 1 1 1 
1 1 1 1 1 1 1 1 1 
1 1 1 1 1 1 1 1 1 
1 1 1 1 1 1 1 1 1 
1 1 1 1 1 1 1 1 1 
1 1 1 1 1 1 1 1 1 
1 1 1 1 1 1 1 1 1 
1 1 1 1 1 1 1 1 1 
1 1 1 1 1 1 1 1 1 
1 1 1 1 1 1 1 1 1 
1 1 1 1 1 1 1 1 1 
1 1 1 1 1 1 1 1 1 
1 1 1 1 1 1 1 1 1 
1 1 1 1 1 1 1 1 1 
1 1 1 1 1 1 1 1 1 
1 1 1 1 1 1 1 1 1 
1 1 1 1 1 1 1 1 1 
1 1 1 1 1 1 1 1 1 
1 1 1 1 1 1 1 1 1 
1 1 1 1 1 1 1 1 1 
1 1 1 1 1 1 1 1 1 
1 1 1 1 1 1 1 1 1 
1 1 1 1 1 1 1 1 1 
1 1 1 1 1 1 1 1 1 
1 1 1 1 1 1 1 1 1 
1 1 1 1 1 1 1 1 1 
1 1 1 1 1 1 1 1 1 
1 1 1 1 1 1 1 1 1 
1 1 1 1 1 1 1 1 1 
1 1 1 1 1 1 1 1 1 
1 1 1 1 1 1 1 1 1 
1 1 1 1 1 1 1 1 1 
1 1 1 1 1 1 1 1 1 
1 1 1 1 1 1 1 1 1 
1 1 1 1 1 1 1 1 1 
1 1 1 1 1 1 1 1 1 
1 1 1 1 1 1 1 1 1 
1 
i 3 820 int
0 0 0 0 0 0 0 0 0 
0 0 0 0 0 0 0 0 0 
0 0 0 0 0 0 0 0 0 
0 0 0 0 0 0 0 0 0 
0 0 0 0 0 0 0 0 0 
0 0 0 0 0 0 0 0 0 
0 0 0 0 0 0 0 0 0 
0 0 0 0 0 0 0 0 0 
0 0 0 0 0 0 0 0 0 
0 0 0 0 0 0 0 0 0 
0 0 0 0 0 0 0 0 0 
0 0 0 0 0 0 0 0 0 
0 0 0 0 0 0 0 0 0 
0 0 0 0 0 0 0 0 0 
0 0 0 0 0 0 0 0 0 
0 0 0 0 0 0 0 0 0 
0 0 0 0 0 0 0 0 0 
0 0 0 0 0 0 0 0 0 
0 0 0 0 0 0 0 0 0 
0 0 0 0 0 0 0 0 0 
0 0 0 0 0 0 0 0 0 
0 0 0 0 0 0 0 0 0 
0 0 0 0 0 0 0 0 0 
0 0 0 0 0 0 0 0 0 
0 0 0 0 0 0 0 0 0 
0 0 0 0 0 0 0 0 0 
0 0 0 0 0 0 0 0 0 
0 0 0 0 0 0 0 0 0 
0 0 0 0 0 0 0 0 0 
0 0 0 0 0 0 0 0 0 
0 0 0 0 0 0 0 0 0 
0 0 0 0 0 0 0 0 0 
0 0 0 0 0 0 0 0 0 
0 0 0 0 0 0 0 0 0 
0 0 0 0 0 0 0 0 0 
0 0 0 0 0 0 0 0 0 
0 0 0 0 0 0 0 0 0 
0 0 0 0 0 0 0 0 0 
0 0 0 0 0 0 0 0 0 
0 0 0 0 0 0 0 0 0 
0 0 0 0 0 0 0 0 0 
0 0 0 0 0 0 0 0 0 
0 0 0 0 0 0 0 0 0 
0 0 0 0 0 0 0 0 0 
0 0 0 0 0 0 0 0 0 
0 0 0 0 0 0 0 0 0 
0 0 0 0 0 0 0 0 0 
0 0 0 0 0 0 0 0 0 
0 0 0 0 0 0 0 0 0 
0 0 0 0 0 0 0 0 0 
0 0 0 0 0 0 0 0 0 
0 0 0 0 0 0 0 0 0 
0 0 0 0 0 0 0 0 0 
0 0 0 0 0 0 0 0 0 
0 0 0 0 0 0 0 0 0 
0 0 0 0 0 0 0 0 0 
0 0 0 0 0 0 0 0 0 
0 0 0 0 0 0 0 0 0 
0 0 0 0 0 0 0 0 0 
0 0 0 0 0 0 0 0 0 
0 0 0 0 0 0 0 0 0 
0 0 0 0 0 0 0 0 0 
0 0 0 0 0 0 0 0 0 
0 0 0 0 0 0 0 0 0 
0 0 0 0 0 0 0 0 0 
0 0 0 0 0 0 0 0 0 
0 0 0 0 0 0 0 0 0 
0 0 0 0 0 0 0 0 0 
0 0 0 0 0 0 0 0 0 
0 0 0 0 0 0 0 0 0 
0 0 0 0 0 0 0 0 0 
0 0 0 0 0 0 0 0 0 
0 0 0 0 0 0 0 0 0 
0 0 0 0 0 0 0 0 0 
0 0 0 0 0 0 0 0 0 
0 0 0 0 0 0 0 0 0 
0 0 0 0 0 0 0 0 0 
0 0 0 0 0 0 0 0 0 
0 0 0 0 0 0 0 0 0 
0 0 0 0 0 0 0 0 0 
0 0 0 0 0 0 0 0 0 
0 0 0 0 0 0 0 0 0 
0 0 0 0 0 0 0 0 0 
0 0 0 0 0 0 0 0 0 
0 0 0 0 0 0 0 0 0 
0 0 0 0 0 0 0 0 0 
0 0 0 0 0 0 0 0 0 
0 0 0 0 0 0 0 0 0 
0 0 0 0 0 0 0 0 0 
0 0 0 0 0 0 0 0 0 
0 0 0 0 0 0 0 0 0 
0 0 0 0 0 0 0 0 0 
0 0 0 0 0 0 0 0 0 
0 0 0 0 0 0 0 0 0 
0 0 0 0 0 0 0 0 0 
0 0 0 0 0 0 0 0 0 
0 0 0 0 0 0 0 0 0 
0 0 0 0 0 0 0 0 0 
0 0 0 0 0 0 0 0 0 
0 0 0 0 0 0 0 0 0 
0 0 0 0 0 0 0 0 0 
0 0 0 0 0 0 0 0 0 
0 0 0 0 0 0 0 0 0 
0 0 0 0 0 0 0 0 0 
0 0 0 0 0 0 0 0 0 
0 0 0 0 0 0 0 0 0 
0 0 0 0 0 0 0 0 0 
0 0 0 0 0 0 0 0 0 
0 0 0 0 0 0 0 0 0 
0 0 0 0 0 0 0 0 0 
0 0 0 0 0 0 0 0 0 
0 0 0 0 0 0 0 0 0 
0 0 0 0 0 0 0 0 0 
0 0 0 0 0 0 0 0 0 
0 0 0 0 0 0 0 0 0 
0 0 0 0 0 0 0 0 0 
0 0 0 0 0 0 0 0 0 
0 0 0 0 0 0 0 0 0 
0 0 0 0 0 0 0 0 0 
0 0 0 0 0 0 0 0 0 
0 0 0 0 0 0 0 0 0 
0 0 0 0 0 0 0 0 0 
0 0 0 0 0 0 0 0 0 
0 0 0 0 0 0 0 0 0 
0 0 0 0 0 0 0 0 0 
0 0 0 0 0 0 0 0 0 
0 0 0 0 0 0 0 0 0 
0 0 0 0 0 0 0 0 0 
0 0 0 0 0 0 0 0 0 
0 0 0 0 0 0 0 0 0 
0 0 0 0 0 0 0 0 0 
0 0 0 0 0 0 0 0 0 
0 0 0 0 0 0 0 0 0 
0 0 0 0 0 0 0 0 0 
0 0 0 0 0 0 0 0 0 
0 0 0 0 0 0 0 0 0 
0 0 0 0 0 0 0 0 0 
0 0 0 0 0 0 0 0 0 
0 0 0 0 0 0 0 0 0 
0 0 0 0 0 0 0 0 0 
0 0 0 0 0 0 0 0 0 
0 0 0 0 0 0 0 0 0 
0 0 0 0 0 0 0 0 0 
0 0 0 0 0 0 0 0 0 
0 0 0 0 0 0 0 0 0 
0 0 0 0 0 0 0 0 0 
0 0 0 0 0 0 0 0 0 
0 0 0 0 0 0 0 0 0 
0 0 0 0 0 0 0 0 0 
0 0 0 0 0 0 0 0 0 
0 0 0 0 0 0 0 0 0 
0 0 0 0 0 0 0 0 0 
0 0 0 0 0 0 0 0 0 
0 0 0 0 0 0 0 0 0 
0 0 0 0 0 0 0 0 0 
0 0 0 0 0 0 0 0 0 
0 0 0 0 0 0 0 0 0 
0 0 0 0 0 0 0 0 0 
0 0 0 0 0 0 0 0 0 
0 0 0 0 0 0 0 0 0 
0 0 0 0 0 0 0 0 0 
0 0 0 0 0 0 0 0 0 
0 0 0 0 0 0 0 0 0 
0 0 0 0 0 0 0 0 0 
0 0 0 0 0 0 0 0 0 
0 0 0 0 0 0 0 0 0 
0 0 0 0 0 0 0 0 0 
0 0 0 0 0 0 0 0 0 
0 0 0 0 0 0 0 0 0 
0 0 0 0 0 0 0 0 0 
0 0 0 0 0 0 0 0 0 
0 0 0 0 0 0 0 0 0 
0 0 0 0 0 0 0 0 0 
0 0 0 0 0 0 0 0 0 
0 0 0 0 0 0 0 0 0 
0 0 0 0 0 0 0 0 0 
0 0 0 0 0 0 0 0 0 
0 0 0 0 0 0 0 0 0 
0 0 0 0 0 0 0 0 0 
0 0 0 0 0 0 0 0 0 
0 0 0 0 0 0 0 0 0 
0 0 0 0 0 0 0 0 0 
0 0 0 0 0 0 0 0 0 
0 0 0 0 0 0 0 0 0 
0 0 0 0 0 0 0 0 0 
0 0 0 0 0 0 0 0 0 
0 0 0 0 0 0 0 0 0 
0 0 0 0 0 0 0 0 0 
0 0 0 0 0 0 0 0 0 
0 0 0 0 0 0 0 0 0 
0 0 0 0 0 0 0 0 0 
0 0 0 0 0 0 0 0 0 
0 0 0 0 0 0 0 0 0 
0 0 0 0 0 0 0 0 0 
0 0 0 0 0 0 0 0 0 
0 0 0 0 0 0 0 0 0 
0 0 0 0 0 0 0 0 0 
0 0 0 0 0 0 0 0 0 
0 0 0 0 0 0 0 0 0 
0 0 0 0 0 0 0 0 0 
0 0 0 0 0 0 0 0 0 
0 0 0 0 0 0 0 0 0 
0 0 0 0 0 0 0 0 0 
0 0 0 0 0 0 0 0 0 
0 0 0 0 0 0 0 0 0 
0 0 0 0 0 0 0 0 0 
0 0 0 0 0 0 0 0 0 
0 0 0 0 0 0 0 0 0 
0 0 0 0 0 0 0 0 0 
0 0 0 0 0 0 0 0 0 
0 0 0 0 0 0 0 0 0 
0 0 0 0 0 0 0 0 0 
0 0 0 0 0 0 0 0 0 
0 0 0 0 0 0 0 0 0 
0 0 0 0 0 0 0 0 0 
0 0 0 0 0 0 0 0 0 
0 0 0 0 0 0 0 0 0 
0 0 0 0 0 0 0 0 0 
0 0 0 0 0 0 0 0 0 
0 0 0 0 0 0 0 0 0 
0 0 0 0 0 0 0 0 0 
0 0 0 0 0 0 0 0 0 
0 0 0 0 0 0 0 0 0 
0 0 0 0 0 0 0 0 0 
0 0 0 0 0 0 0 0 0 
0 0 0 0 0 0 0 0 0 
0 0 0 0 0 0 0 0 0 
0 0 0 0 0 0 0 0 0 
0 0 0 0 0 0 0 0 0 
0 0 0 0 0 0 0 0 0 
0 0 0 0 0 0 0 0 0 
0 0 0 0 0 0 0 0 0 
0 0 0 0 0 0 0 0 0 
0 0 0 0 0 0 0 0 0 
0 0 0 0 0 0 0 0 0 
0 0 0 0 0 0 0 0 0 
0 0 0 0 0 0 0 0 0 
0 0 0 0 0 0 0 0 0 
0 0 0 0 0 0 0 0 0 
0 0 0 0 0 0 0 0 0 
0 0 0 0 0 0 0 0 0 
0 0 0 0 0 0 0 0 0 
0 0 0 0 0 0 0 0 0 
0 0 0 0 0 0 0 0 0 
0 0 0 0 0 0 0 0 0 
0 0 0 0 0 0 0 0 0 
0 0 0 0 0 0 0 0 0 
0 0 0 0 0 0 0 0 0 
0 0 0 0 0 0 0 0 0 
0 0 0 0 0 0 0 0 0 
0 0 0 0 0 0 0 0 0 
0 0 0 0 0 0 0 0 0 
0 0 0 0 0 0 0 0 0 
0 0 0 0 0 0 0 0 0 
0 0 0 0 0 0 0 0 0 
0 0 0 0 0 0 0 0 0 
0 0 0 0 0 0 0 0 0 
0 0 0 0 0 0 0 0 0 
0 0 0 0 0 0 0 0 0 
0 0 0 0 0 0 0 0 0 
0 0 0 0 0 0 0 0 0 
0 0 0 0 0 0 0 0 0 
0 0 0 0 0 0 0 0 0 
0 0 0 0 0 0 0 0 0 
0 0 0 0 0 0 0 0 0 
0 0 0 0 0 0 0 0 0 
0 0 0 0 0 0 0 0 0 
0 0 0 0 0 0 0 0 0 
0 0 0 0 0 0 0 0 0 
0 0 0 0 0 0 0 0 0 
0 0 0 0 0 0 0 0 0 
0 0 0 0 0 0 0 0 0 
0 0 0 0 0 0 0 0 0 
0 0 0 
v 3 820 double
-0.00654527 0.00377549 -6.54834e-13 -0.00263081 0.00089616 -0.000813083 0.0222198 -0.0446056 0.000176585 
-0.00303096 0.00317126 0.00134455 -0.0121481 -0.0115502 7.92111e-07 0.0136409 0.00358175 0.000222877 
-0.0181552 -0.00458793 -0.00710914 0.0100954 -0.00169417 -1.0616e-07 -0.00914193 0.0065455 -2.6964e-05 
-0.0105042 0.0239481 4.04814e-14 0.0153913 0.0263858 -8.59977e-14 0.085919 -0.0118149 -0.00767905 
-0.0293257 -0.00248792 0.00305894 -0.0181308 -0.000394653 -5.32402e-05 -0.023068 -0.010917 -0.00265871 
-0.00965581 0.00231756 1.25556e-05 -0.00165908 0.0122007 1.21322e-08 -0.00167055 0.0100323 2.7838e-07 
-0.013718 -0.00198196 0.00396043 -0.0102643 0.0202735 -0.0110439 -0.00156009 0.00394092 0.00279112 
0.0204487 -0.00772912 0.00125443 0.0177969 -0.00452124 -0.00479531 -0.0159975 -0.0389747 0.00129396 
0.0536129 0.0350402 0.00392825 -0.0178088 0.00257689 0.000103166 -0.0208581 -0.00917215 0.00100907 
0.000196087 0.00848622 0.00784544 -0.014703 -0.0081512 2.16562e-09 -0.0313963 -0.0175092 -0.000109695 
0.0508564 0.0306597 0.0730966 -0.0070875 0.0502551 -0.000870567 0.016023 -0.0188227 0.00322704 
0.0459422 -0.0218614 -0.00966213 -0.0285487 0.0409354 0.00416534 0.035709 0.00700093 0.00443094 
0.00449976 0.00218133 -0.00171096 -0.00207526 0.000100889 -0.0104654 0.00575513 -0.0316293 4.55484e-06 
-0.00972923 -0.00767609 -2.79527e-08 0.301746 -0.212948 0.0870557 -0.0191453 0.0236896 2.30686e-05 
0.066361 0.0504527 -0.00813277 -0.201983 -0.07264 0.0149837 0.0508566 0.0869254 0.053773 
0.0999643 -0.00976466 -0.0996942 0.000198109 -0.0230533 -0.00707746 -0.0534166 0.101557 -5.91199e-06 
-0.0629858 -0.0611012 0.00164368 0.00396954 0.022613 -0.000386346 -0.0177307 0.116357 0.020682 
0.00539581 -0.000322326 2.35206e-13 0.117194 0.11714 0.0678106 0.00813431 -0.0108968 -1.31228e-08 
-0.000968514 0.00489263 -9.1531e-14 0.0155402 -0.00876973 -2.22708e-05 -0.0132101 0.0384755 0.0187824 
0.0427976 0.0576657 0.0885343 -0.0350572 0.0205294 0.0482893 0.106251 -0.0693554 0.0210712 
0.0498603 0.0236939 1.43767e-09 -0.000817137 -0.0210982 0.073364 -0.00270889 0.0426514 -0.00207346 
0.0714667 0.00874363 2.70381e-10 0.0541924 0.0611628 0.0889762 0.0368791 0.0452418 0.000217821 
-0.0315087 -0.0299877 -8.07695e-05 0.00911819 -0.0066388 0.000488962 -0.0224564 0.0529178 -3.46891e-06 
0.0214647 0.0309986 -0.000670392 0.0518575 0.0934405 0.00898866 0.0692509 -0.267588 0.148551 
0.0429158 0.05189 0.00286189 0.0271277 0.0714144 -0.00231815 -0.0529544 0.0995809 -4.99735e-07 
-0.0525174 0.0999 -1.64879e-05 -0.0382337 -0.0176362 0.0202471 0.0601693 0.0330803 0.00839358 
0.0409265 0.00192974 -0.00193997 0.0133047 -0.00258524 1.33624e-09 -0.00898002 -0.00946463 -1.40545e-06 
0.00815921 -0.13435 -0.000205493 -0.00763659 -0.0299164 -0.0264324 -0.00193221 -0.0119563 0.00868133 
0.00939721 0.00623106 -1.53595e-07 0.0126667 0.00512934 -1.8874e-05 0.0825457 0.0480363 0.00327347 
0.0424265 -0.0471292 0.00114953 0.016568 -0.00390455 0.00511136 -0.0691852 0.0706741 -8.59328e-14 
0.0697323 0.0553696 3.80692e-05 -0.193794 -0.0501535 0.32182 0.07289 0.0750191 -0.00177905 
-0.294189 0.252901 -0.0161801 0.00623154 0.0285731 -0.00098827 0.00417896 0.0019875 3.89884e-11 
0.00639198 0.0318544 -0.00524378 -0.0400768 0.017157 -0.00419816 0.0112525 -0.0042235 -6.92475e-07 
0.0189844 0.0481334 0.0241933 -0.0935748 -0.00995844 -0.0125119 0.0105358 -0.0195245 0.000330614 
0.0105849 -0.0167316 -0.000954446 0.0109255 0.013416 0.00219161 0.0783764 0.00635954 -3.67153e-05 
0.0256938 -0.0251475 0.00857415 0.0651402 0.0206254 0.0155546 -0.0379815 0.0181089 -2.04239e-05 
-0.00852415 0.0632453 0.0209843 0.00416232 0.0457232 -0.000833186 0.0137533 0.065613 -0.0937468 
0.0377075 0.10373 0.00757452 0.0462836 0.00843874 -0.000361895 -0.00124407 -0.00548318 2.54254e-08 
0.0291072 -0.00735277 1.83088e-05 0.000165206 0.0192222 -2.10785e-07 0.00703775 -0.0117569 -0.00189312 
-0.0165082 -0.104673 -0.0174554 -0.000111795 -0.0946152 0.08865 0.0865757 0.0112681 -0.0166534 
0.0897569 0.0156104 0.000471321 -0.0192022 0.0169079 7.19549e-06 -0.110917 0.0985586 0.00233716 
-0.0163319 0.0672779 0.00152903 -0.0373999 0.0767319 -1.97759e-05 -0.0392428 0.0867821 0.00248542 
-0.00395292 0.0162998 0.00522627 0.0100891 0.0135587 -4.99876e-07 -0.00513649 0.00771928 0.00488486 
-0.00494475 -0.0128692 -8.02827e-05 -0.0195045 -0.0122312 0.000677484 -0.00436096 0.00264619 0.000697586 
-0.0193926 0.0193248 0.000525289 0.015024 0.0185874 6.35023e-07 0.0506676 0.0189224 -0.0207959 
-0.0257284 -0.0261028 9.96835e-07 0.0268444 -0.066226 -0.0147442 0.0466107 -0.0100809 -0.000556408 
0.0622128 0.00478301 0.0276597 0.0148867 0.0204772 0.00206164 0.0893942 0.0329406 0.0115291 
0.103551 0.0140197 -0.000437147 -0.0561797 -0.0843144 -0.158483 -0.0462377 0.00540246 -0.000336842 
0.0181646 0.10913 0.0171873 -0.0364721 0.0235831 -0.000107422 0.00457084 -0.010709 0.000922034 
0.0105369 -0.0279053 0.000881953 0.0214215 -0.00288691 -0.000182705 -0.0512353 -0.00939035 -1.20964e-10 
0.00397584 0.0207706 -9.69823e-11 0.0156265 -0.0202359 6.95027e-06 0.0451185 -0.108677 1.14464e-09 
-0.0594548 -0.0243301 -1.37638e-10 0.00815642 0.0247668 -0.00132839 0.0507571 0.00663305 0.0305019 
-0.0158322 0.00781399 0.0121205 0.014869 -0.0104986 -1.42704e-06 0.0304612 -0.0134934 -3.51017e-12 
-0.00533751 -0.00180685 0.00043567 -0.0845017 0.0433484 3.13363e-05 -0.00500216 0.00457174 4.19751e-13 
-0.00270487 0.0565919 -0.00496964 -0.0369139 -0.00285126 0.0063657 -0.0414659 0.00229573 1.95251e-13 
-0.0162628 -0.033226 4.98749e-09 -0.0047426 -0.0270918 -1.53821e-07 -0.0116534 -0.0603551 -4.04717e-13 
-0.000357182 0.0233219 3.43427e-05 0.0142839 -0.00393571 -5.28397e-13 0.0154726 -0.0400539 -0.0230871 
0.0171474 0.112441 0.000859689 -0.00169971 -0.0670926 4.8296e-13 0.0241188 0.0020065 -0.00105496 
0.00042538 0.00542567 -0.00154615 0.0110609 0.00931696 0.000398389 0.0147308 0.008836 0.000105666 
0.0276816 -0.0171678 -2.48676e-06 0.00512775 0.0241874 0.00226117 -0.0122146 0.0078391 -0.000427844 
-0.0409784 -0.000809639 -0.00259087 -0.00938847 -0.0254757 0.00463641 0.00039634 0.0115152 -1.19843e-08 
-0.00583348 -0.0618965 -0.000203589 0.020902 -0.0341634 -0.00152765 -0.0209984 -0.0700881 -1.24595e-10 
0.0222906 -0.0421376 -2.87919e-10 -0.0410221 0.0197316 -4.27919e-05 0.000160601 -0.0180225 5.38048e-08 
-0.000214625 0.00708695 1.51445e-10 0.0527372 -0.0160348 -2.71957e-07 -0.00270863 0.0144775 0.000203443 
0.00509373 0.0228142 -0.000922866 0.012676 0.0155862 0.0136513 0.0150718 0.0128885 0.000815513 
-0.00522402 -0.00194069 1.94171e-06 -0.000890968 -0.00191932 0.00044413 0.000135494 -0.00439 0.00175861 
0.00310574 -0.0222226 2.38023e-05 0.0161548 0.0225034 0.00014741 0.0191588 0.0129721 -1.86181e-12 
0.010325 0.000519523 -5.71252e-05 0.00771347 -0.0360435 -0.00361039 -0.0027063 -0.0336156 2.20535e-05 
-0.0146086 -0.0484023 -2.45696e-05 0.0364293 0.00219505 0.000405918 -0.00735218 -0.016853 0.000200729 
0.00742288 -0.00408481 -9.08973e-05 -0.00146129 -0.0140029 0.00016627 0.0578222 -0.0216832 0.000252025 
0.023927 0.00867579 0.000533802 -0.00392207 -0.00962603 -0.0175239 -0.00560885 0.0081157 -0.00163355 
0.0202807 0.0232049 -1.40234e-10 0.00437612 0.0133369 -0.00110736 0.00292966 -0.0047728 0.000890223 
-0.000860552 -0.0134446 -3.03795e-05 0.0057514 -0.0338577 -5.6363e-05 -0.0465503 -0.0914212 0.000980545 
0.000345214 -0.0302944 -0.0030257 0.0187642 -0.056143 0.00182525 0.0113957 -0.0237531 3.51646e-06 
0.0152771 -0.0493639 6.17421e-08 -0.0367426 -0.0375208 -0.0270473 -0.00409858 -0.0177002 -1.49147e-13 
0.0139704 -0.00731583 -7.64753e-05 -0.0372526 -0.0145124 0.00482557 -0.00110723 -0.00203261 4.04854e-14 
0.00520624 -0.000469334 -4.4555e-09 0.0237751 0.0122654 -1.65305e-05 -0.0022648 0.0468263 -1.33725e-06 
0.00683423 0.00751893 1.11097e-08 0.00641465 0.000998191 -4.68808e-05 0.0153074 -0.0022963 1.56106e-06 
-0.0106786 0.034091 0.000109909 -0.0132741 -0.0197573 -0.000140044 -0.0107402 -0.0371127 0.00392451 
0.0144993 -0.0226342 -0.0230188 -0.000611672 -0.0622599 -0.0456895 0.0320634 -0.05112 0.0150609 
-0.0230908 -0.0265629 -2.35182e-08 0.0567057 0.00794927 0.000348679 -0.0131026 -0.00306356 4.36897e-07 
0.00587453 -0.0157909 7.70303e-05 0.000826844 -0.0362053 0.000193281 -0.00259748 -0.00522697 -1.49148e-13 
0.0093877 -0.00132428 -0.000339934 -0.00367313 -0.0180435 0.0041602 0.117802 -0.0682919 2.47e-09 
-0.0762883 0.139388 0.0593533 -0.0374705 0.10347 0.252348 0.000115375 -0.00318861 0.00396569 
0.0100937 0.00506791 -0.0045439 -0.0329268 0.0624572 3.68953e-09 -0.0108412 -0.0522381 -0.00263146 
0.0165562 0.0424233 -0.000168292 -0.0512415 0.0254066 1.72405e-09 0.0213577 -0.0105482 -0.0247872 
-0.0198459 0.018334 0.0136589 -0.0137063 -0.00498958 0.00283492 0.0253887 -0.000508004 -1.44314e-06 
-0.00358144 0.0292849 -8.59626e-08 -0.0190968 -0.0344822 -0.000808631 0.00632786 0.0012074 -2.75569e-13 
0.0257882 -0.0954013 -0.00176383 0.0447706 -0.0419497 -0.0252745 0.00863985 -0.00430563 -5.36953e-05 
0.0108121 -0.00263317 0.000815187 0.0169017 -0.00654549 -0.00053477 -0.0791676 -0.00734922 0.00270282 
-0.00483916 0.00921911 0.0193893 0.056712 -0.0704235 -0.0457123 -0.0420504 0.0891943 -0.0235888 
-0.0224599 0.00121513 -1.75468e-05 -0.0553665 -0.135811 0.155053 0.0463265 -0.0194625 0.0956249 
0.0763853 0.0886022 0.00897434 -0.0426243 -0.0694287 3.56539e-13 -0.0106252 -0.00975758 -0.00148929 
0.00892718 -0.0423876 -0.00482622 0.0146691 -0.0373989 -6.24364e-09 0.00151303 -0.0138598 0.00120684 
0.0521395 -0.11635 0.109679 0.0950196 -0.0375704 -0.0229299 -0.0229379 0.0102037 -8.74403e-06 
-0.00374561 -0.0624283 -0.0976078 0.114457 -0.290564 0.0453806 0.000962262 0.00717755 5.00106e-05 