# vtk DataFile Version 4.0
Generated by LIGGGHTS
ASCII
DATASET POLYDATA
POINTS 587 float
-0.00446828 -0.0483623 0.082118 0.00215902 -0.0495662 0.0811205 0.00703923 -0.0490006 0.081091 
0.0114443 -0.0483259 0.0812143 -0.0187521 -0.0459329 0.0811205 -0.0126745 -0.0448886 0.0811205 
-0.0149283 -0.047363 0.0811192 -0.00928676 -0.046996 0.08112 -0.00921451 -0.0439967 0.0811205 
-0.00618047 -0.0448605 0.0811205 -0.000177446 -0.0447889 0.0811205 0.0115363 -0.0448535 0.0812561 
0.0139822 -0.0466956 0.0811212 0.0169984 -0.0466978 0.0811209 0.0185378 -0.0440592 0.0811523 
0.0216261 -0.0446501 0.0811205 -0.0227988 -0.0418014 0.0811205 -0.0172157 -0.0433394 0.0814685 
-0.00985312 -0.0410596 0.0811168 -0.00331867 -0.0430945 0.0811202 0.00635654 -0.042672 0.0811369 
0.0161417 -0.0427694 0.0823961 0.0188747 -0.0412199 0.0822718 0.0249335 -0.0416846 0.0821185 
-0.0314555 -0.0381629 0.0811205 -0.0200237 -0.0406405 0.0811205 -0.00805685 -0.038691 0.0812731 
4.47274e-05 -0.0401622 0.0821188 0.0113178 -0.0400601 0.0825102 0.015041 -0.0402872 0.0811148 
0.0214106 -0.0398861 0.081237 -0.0264532 -0.0362181 0.0821183 -0.0181456 -0.0371756 0.0821182 
-0.0121307 -0.0379871 0.0811196 -0.00954421 -0.0349848 0.0823558 -0.00224715 -0.0345906 0.0811488 
0.0235461 -0.0351273 0.0812656 0.0272417 -0.0361964 0.0811207 0.0325911 -0.0361578 0.0821205 
0.0358813 -0.0341305 0.0811153 -0.0341 -0.0309994 0.0811206 -0.0200425 -0.0323792 0.0811235 
-0.0162688 -0.033657 0.081124 -0.0175019 -0.0305135 0.0811691 -0.0139039 -0.0310695 0.0818507 
0.0296858 -0.0320199 0.0821177 0.0338349 -0.0312137 0.0811317 0.0375776 -0.0300388 0.0821189 
-0.0406743 -0.028475 0.0811205 -0.0109096 -0.0289427 0.0833603 0.0250085 -0.0289208 0.082194 
0.0335247 -0.0271351 0.0811205 0.0364399 -0.0262015 0.0811211 0.0396921 -0.0267492 0.0811202 
-0.0389157 -0.0237918 0.0813052 -0.0257172 -0.022349 0.0811205 -0.0227473 -0.0249653 0.0822272 
-0.00327972 -0.0254796 0.0812322 0.0234836 -0.0237947 0.0821183 0.0386388 -0.0230106 0.0821181 
0.0424856 -0.0252459 0.0811205 -0.0451992 -0.0193564 0.0811205 -0.0421983 -0.0199817 0.0838316 
-0.0355412 -0.0215092 0.0811632 -0.0282861 -0.0206269 0.0812534 -0.0212816 -0.019712 0.0811205 
0.0427459 -0.0213558 0.0811205 0.0455009 -0.0197417 0.0811205 -0.0417713 -0.016168 0.0821183 
-0.0348166 -0.0164567 0.0811205 7.46674e-05 -0.0182633 0.0821187 0.0213512 -0.0191244 0.081124 
0.0364999 -0.0190924 0.0811205 0.0333889 -0.016685 0.0821185 0.0395047 -0.0192096 0.0811205 
0.0427221 -0.0169591 0.082118 -0.046452 -0.0144039 0.082118 -0.0377832 -0.0156369 0.0811205 
-0.0355863 -0.0130797 0.0811205 -0.0314913 -0.0124025 0.0821183 -0.0234469 -0.0125082 0.0815676 
-0.0105916 -0.0147788 0.0821183 -0.00638584 -0.0135345 0.0813995 -0.00176907 -0.014755 0.0827948 
0.0239075 -0.0144532 0.0821183 0.0293664 -0.0163713 0.0811205 0.0318534 -0.0129898 0.0811205 
0.0377092 -0.0154976 0.0811205 0.0402109 -0.0137693 0.0811205 0.0431608 -0.013112 0.0811197 
0.0461806 -0.0144259 0.0811205 -0.0473279 -0.00941858 0.0821183 -0.0422284 -0.0109701 0.082118 
-0.0384509 -0.0119237 0.0811205 -0.0337882 -0.00928119 0.0811205 -0.0266153 -0.011208 0.0811205 
-0.0128029 -0.0113603 0.0811205 -0.00527869 -0.00977066 0.0821185 -0.00100925 -0.00968649 0.0811205 
0.0054759 -0.0122221 0.0812423 0.0114793 -0.0108451 0.0820975 0.0263669 -0.0100318 0.0821183 
0.0373213 -0.0105368 0.0811205 0.0416171 -0.0104304 0.0811156 0.0481165 -0.012068 0.0811205 
0.0486702 -0.00887597 0.0811203 -0.0420692 -0.0068771 0.0811205 -0.0358061 -0.0059723 0.0821183 
-0.0282053 -0.00820731 0.0811205 -0.0265393 -0.00571087 0.0811205 -0.0192822 -0.00610987 0.0811205 
-0.0161262 -0.00598718 0.0811686 -0.0117162 -0.008076 0.0811103 -0.00851824 -0.00576656 0.0821183 
-0.00195328 -0.00574401 0.0821184 0.0128597 -0.00566494 0.0811322 0.0180566 -0.00650172 0.0811653 
0.0265665 -0.0061302 0.0811226 0.0295008 -0.00574875 0.0816712 0.0306572 -0.00929613 0.0811205 
-0.0474145 -0.00508202 0.0811205 -0.0267735 -0.00254977 0.0811205 -0.0126587 -0.00478502 0.0811186 
-0.00507608 -0.00338003 0.0812223 0.000497217 -0.00274229 0.0811406 0.00432053 -0.00329861 0.0823221 
0.00944122 -0.00179024 0.0823919 0.0163721 -0.00388449 0.0811205 0.0222135 -0.00368742 0.0821183 
0.0317367 -0.00380404 0.0811205 -0.0496111 0.000106837 0.0811588 -0.0388188 -0.00157218 0.0821183 
-0.033896 -0.00064234 0.0811205 -0.0312265 0.0011498 0.0811205 -0.0283606 4.64992e-05 0.0811205 
-0.0162087 -0.00123998 0.0821128 -0.0112127 -0.00113857 0.0821307 -0.00177856 0.000933969 0.0815244 
0.00595149 0.000238982 0.0811557 0.0110921 0.00186154 0.081403 0.0272969 -0.00178108 0.0821339 
0.0320996 0.000194065 0.0821191 0.0366422 -0.00141097 0.082127 -0.0493685 0.00479521 0.0811205 
-0.0460609 0.0047764 0.0811205 -0.0433533 0.00333605 0.0811205 -0.0405357 0.00214664 0.0811205 
-0.0378955 0.00400936 0.0811205 -0.0119893 0.00520843 0.0811205 -0.0087141 0.00382903 0.0811187 
-0.00521543 0.00393784 0.0827708 0.0151691 0.00332601 0.0823759 0.022591 0.00311067 0.0811205 
0.0462239 0.00357236 0.0821183 -0.0477328 0.00834086 0.0821181 -0.0438392 0.00736981 0.0811631 
-0.0410039 0.00562008 0.0811205 -0.0202823 0.00645042 0.0811205 -0.0173086 0.00807923 0.0811207 
-0.00805342 0.00768855 0.0821183 0.00035358 0.00792265 0.0812386 0.00696799 0.00769211 0.0814691 
0.0103155 0.00639709 0.0811194 0.0186497 0.00551793 0.0811178 0.0385361 0.00815742 0.0821183 
0.0479356 0.00833828 0.0821183 -0.0418535 0.0117359 0.0811205 -0.0376486 0.0111365 0.0821384 
-0.0304908 0.0096324 0.0821995 -0.0122098 0.0116035 0.0821192 -0.00728023 0.011832 0.0812698 
-0.00408177 0.00977601 0.0810989 0.0102 0.0113927 0.0821183 0.0246555 0.00949236 0.0821185 
0.0344623 0.00995088 0.0811205 -0.0455054 0.0130607 0.082118 -0.0281972 0.0141536 0.0811205 
-0.021418 0.0134073 0.0811205 0.00523385 0.0137831 0.0811205 0.022478 0.0164546 0.0811205 
0.0277756 0.0134602 0.0811205 0.0411079 0.0125553 0.0821183 -0.0429281 0.0175927 0.0811205 
-0.0354295 0.0169978 0.0821183 -0.0265014 0.0187941 0.0821183 -0.0181732 0.0183328 0.0811205 
-0.0122967 0.0172267 0.0811205 0.0030443 0.0188682 0.0821183 0.0146126 0.0161933 0.0811205 
0.0185589 0.0171094 0.0811278 0.0410011 0.0190834 0.0811205 0.0451947 0.0193153 0.0813238 
-0.0432285 0.0223072 0.0821181 -0.0397661 0.0196839 0.0811205 0.00665955 0.0227746 0.0821213 
0.0148153 0.0205733 0.0821184 0.0212559 0.0219542 0.0864692 -0.0386844 0.0244025 0.0821183 
-0.0297229 0.0252791 0.0811205 -0.0164885 0.0232496 0.0824419 -0.0194544 0.0259663 0.0811205 
-0.0105207 0.0239723 0.0826831 0.00248598 0.0265189 0.0823666 0.0167159 0.0252391 0.0811205 
0.0227953 0.0264489 0.0811214 0.0310531 0.0250719 0.0821183 0.0351804 0.0236212 0.0811509 
-0.0386821 0.0294586 0.0821183 -0.0188848 0.0299913 0.0821184 -0.00245753 0.0290724 0.0821185 
0.0255057 0.0277732 0.0811288 0.0281056 0.0296299 0.0811041 0.031321 0.0291559 0.0811286 
0.0353564 0.0298712 0.0821187 0.0408792 0.0275179 0.0811192 -0.0348292 0.0310583 0.0811205 
-0.0246746 0.0325305 0.0811205 -0.00909358 0.0299022 0.0839913 -0.000918173 0.032633 0.0811205 
0.00350853 0.0314093 0.0823987 0.0318037 0.033296 0.0811205 0.0391803 0.0304735 0.0811193 
-0.0367194 0.0334196 0.0811183 -0.0346421 0.0355789 0.0811149 -0.0312248 0.0344549 0.0811205 
-0.0278385 0.0363837 0.0821157 -0.0155133 0.0357056 0.0821168 -0.00984908 0.0359352 0.0821183 
0.00568552 0.0344674 0.0810824 0.0210533 0.0340916 0.0811205 0.0267499 0.0352979 0.0811173 
0.0294858 0.0365214 0.0811214 0.034166 0.0354155 0.0810941 -0.0321844 0.0373131 0.0811201 
0.00442271 0.0381294 0.0822839 0.0115229 0.0387114 0.0811205 0.0145077 0.0390803 0.0811205 
0.0183841 0.0387989 0.0821183 0.023795 0.0377949 0.0821187 0.0299819 0.0394863 0.0811207 
-0.0277273 0.0409143 0.0811305 -0.0237924 0.0415409 0.0821222 -0.00930955 0.0410644 0.0821258 
0.0103979 0.0418352 0.0811115 0.0210339 0.0435151 0.0821168 0.0250403 0.0427946 0.0811205 
0.0271445 0.0406036 0.0811205 -0.0131464 0.045316 0.0821183 -0.00755674 0.0448583 0.0822176 
-0.00395155 0.0461507 0.0811153 0.000737499 0.0467958 0.0811205 0.00410163 0.0468995 0.0811203 
0.00754908 0.0444316 0.0821373 0.0117533 0.047196 0.0821187 0.0163066 0.0451358 0.082119 
-0.0101309 0.0479423 0.0811208 -0.00724718 0.0488041 0.0811203 -0.00430412 0.0493886 0.0813171 
-0.000184645 0.0496561 0.081121 -0.00829798 -0.0489753 0.0831443 -0.00243463 -0.0450292 0.0832342 
0.00352673 -0.0449388 0.0829463 0.012151 -0.0454696 0.0841081 0.0150719 -0.0447446 0.0845852 
0.0183398 -0.0453077 0.0845192 -0.00818869 -0.0418982 0.0834639 0.00922356 -0.0427039 0.0820597 
0.00663106 -0.0414529 0.0840495 -0.0164336 -0.0389217 0.0858106 -0.00979525 -0.0393698 0.0838981 
-0.00564571 -0.0379185 0.0845703 0.00582098 -0.0359665 0.0826147 0.0157934 -0.0390482 0.0874602 
-0.0339198 -0.0346847 0.0829645 -0.0144211 -0.0363244 0.0834667 0.00201514 -0.0314069 0.0820642 
0.0196373 -0.0361592 0.0822806 -0.0188831 -0.033431 0.0843164 -0.0143703 -0.0335725 0.0851068 
-0.00249382 -0.0307646 0.0826099 0.0166322 -0.030995 0.0825708 -0.0333931 -0.0275939 0.0861383 
-0.0204047 -0.0291969 0.083668 0.0408714 -0.0282058 0.0834609 0.0142429 -0.0224766 0.0842028 
-0.0436663 -0.0233226 0.0850573 -0.0402391 -0.023421 0.083991 -0.0288638 -0.0212893 0.0895914 
-0.026151 -0.0187966 0.0827443 -0.00983931 -0.0218685 0.082759 0.0351154 -0.0211094 0.0829935 
0.0412292 -0.0203548 0.0836108 -0.013699 -0.0186285 0.0828403 -0.00519406 -0.0148686 0.0854203 
0.0184874 -0.0194426 0.0819822 -0.0437341 -0.0134326 0.0848858 0.0319886 -0.0139693 0.0848015 
0.0162453 -0.0114686 0.0839746 0.0484144 -0.00993005 0.0846634 0.0113556 -0.00644788 0.0847713 
0.0146008 -0.00817584 0.0818218 0.0179546 -0.00664493 0.0852274 0.0448184 -0.00873568 0.0827969 
-0.00712137 -0.00385607 0.0854358 0.0401803 -0.00316203 0.0854817 -0.00683861 -0.00106869 0.0831579 
0.0494197 -0.002114 0.0852459 0.0496245 0.00133289 0.0821041 -0.0492338 0.00447507 0.0843265 
-0.0374057 0.00459896 0.0843091 -0.0297679 0.00456569 0.0827574 -0.0160273 0.00402731 0.0831804 
[...]
POINT_DATA 587
FIELD FieldData 7
id 1 587 int
171 90 240 46 262 199 290 32 96 
189 70 87 95 18 19 98 76 250 
249 59 207 396 45 272 178 6 24 
79 165 375 33 2 119 77 208 366 
364 50 92 238 278 239 204 280 273 
258 51 184 173 429 359 228 167 110 
164 352 259 266 43 221 187 48 274 
286 263 161 179 86 132 84 30 180 
11 157 217 67 144 191 202 4 279 
54 138 101 17 353 186 74 69 102 
128 185 134 330 88 218 36 53 276 
318 195 66 174 255 10 265 168 236 
115 331 351 264 193 197 169 289 114 
324 203 188 154 194 38 367 9 93 
172 139 14 312 58 183 356 395 85 
271 333 275 111 230 91 160 315 149 
253 148 116 89 22 125 162 15 122 
130 105 124 325 369 62 55 311 432 
206 301 145 143 268 107 120 28 242 
175 321 257 201 65 83 20 97 219 
227 42 61 210 5 126 26 309 313 
155 267 327 29 57 298 223 430 1 
25 270 292 317 347 181 23 245 393 
41 117 246 205 136 200 78 140 47 
8 427 150 106 72 129 135 152 34 
232 131 133 99 344 73 37 103 244 
196 340 112 27 147 75 177 118 215 
254 81 7 142 170 335 212 109 56 
52 31 16 163 190 226 123 287 166 
211 394 213 21 342 293 300 316 39 
220 346 422 94 137 100 158 431 407 
182 345 113 310 63 237 108 428 433 
304 13 256 216 260 323 354 294 229 
234 363 319 44 332 372 337 334 151 
192 288 261 381 233 295 146 104 306 
64 141 224 410 241 49 209 82 3 
302 235 225 231 399 121 40 284 60 
176 127 71 282 198 214 424 285 328 
307 414 281 243 251 12 269 423 303 
305 426 277 80 329 412 222 384 383 
421 408 291 416 35 357 425 156 247 
446 405 368 403 413 373 397 248 415 
411 376 439 417 419 380 391 320 299 
358 398 444 252 283 400 406 377 387 
355 418 314 409 382 385 360 349 379 
420 402 68 404 445 390 371 153 392 
435 437 374 341 308 386 389 348 442 
401 362 297 338 343 365 322 326 436 
339 361 159 388 378 440 296 336 350 
441 370 443 438 434 457 454 458 453 
447 451 449 455 456 448 450 452 469 
466 463 467 459 465 471 461 460 462 
464 468 470 477 483 479 480 481 474 
478 484 472 475 473 476 482 495 494 
488 497 492 491 486 496 489 490 487 
485 493 502 499 509 500 507 506 503 
504 501 505 508 510 517 498 522 511 
523 521 518 519 514 515 520 512 516 
513 526 528 532 524 534 531 529 527 
525 535 533 530 536 544 543 547 542 
549 548 541 545 562 539 557 550 538 
540 546 537 555 553 554 556 560 559 
551 552 561 567 558 571 565 564 568 
563 574 569 573 583 566 570 572 582 
580 575 586 577 581 578 576 587 585 
579 584 
type 1 587 int
1 1 1 1 1 1 1 1 1 
1 1 1 1 1 1 1 1 1 
1 1 1 1 1 1 1 1 1 
1 1 1 1 1 1 1 1 1 
1 1 1 1 1 1 1 1 1 
1 1 1 1 1 1 1 1 1 
1 1 1 1 1 1 1 1 1 
1 1 1 1 1 1 1 1 1 
1 1 1 1 1 1 1 1 1 
1 1 1 1 1 1 1 1 1 
1 1 1 1 1 1 1 1 1 
1 1 1 1 1 1 1 1 1 
1 1 1 1 1 1 1 1 1 
1 1 1 1 1 1 1 1 1 
1 1 1 1 1 1 1 1 1 
1 1 1 1 1 1 1 1 1 
1 1 1 1 1 1 1 1 1 
1 1 1 1 1 1 1 1 1 
1 1 1 1 1 1 1 1 1 
1 1 1 1 1 1 1 1 1 
1 1 1 1 1 1 1 1 1 
1 1 1 1 1 1 1 1 1 
1 1 1 1 1 1 1 1 1 
1 1 1 1 1 1 1 1 1 
1 1 1 1 1 1 1 1 1 
1 1 1 1 1 1 1 1 1 
1 1 1 1 1 1 1 1 1 
1 1 1 1 1 1 1 1 1 
1 1 1 1 1 1 1 1 1 
1 1 1 1 1 1 1 1 1 
1 1 1 1 1 1 1 1 1 
1 1 1 1 1 1 1 1 1 
1 1 1 1 1 1 1 1 1 
1 1 1 1 1 1 1 1 1 
1 1 1 1 1 1 1 1 1 
1 1 1 1 1 1 1 1 1 
1 1 1 1 1 1 1 1 1 
1 1 1 1 1 1 1 1 1 
1 1 1 1 1 1 1 1 1 
1 1 1 1 1 1 1 1 1 
1 1 1 1 1 1 1 1 1 
1 1 1 1 1 1 1 1 1 
1 1 1 1 1 1 1 1 1 
1 1 1 1 1 1 1 1 1 
1 1 1 1 1 1 1 1 1 
1 1 1 1 1 1 1 1 1 
1 1 1 1 1 1 1 1 1 
1 1 1 1 1 1 1 1 1 
1 1 1 1 1 1 1 1 1 
1 1 1 1 1 1 1 1 1 
1 1 1 1 1 1 1 1 1 
1 1 1 1 1 1 1 1 1 
1 1 1 1 1 1 1 1 1 
1 1 1 1 1 1 1 1 1 
1 1 1 1 1 1 1 1 1 
1 1 1 1 1 1 1 1 1 
1 1 1 1 1 1 1 1 1 
1 1 1 1 1 1 1 1 1 
1 1 1 1 1 1 1 1 1 
1 1 1 1 1 1 1 1 1 
1 1 1 1 1 1 1 1 1 
1 1 1 1 1 1 1 1 1 
1 1 1 1 1 1 1 1 1 
1 1 1 1 1 1 1 1 1 
1 1 1 1 1 1 1 1 1 
1 1 
i 3 587 int
0 0 0 0 0 0 0 0 0 
0 0 0 0 0 0 0 0 0 
0 0 0 0 0 0 0 0 0 
0 0 0 0 0 0 0 0 0 
0 0 0 0 0 0 0 0 0 
0 0 0 0 0 0 0 0 0 
0 0 0 0 0 0 0 0 0 
0 0 0 0 0 0 0 0 0 
0 0 0 0 0 0 0 0 0 
0 0 0 0 0 0 0 0 0 
0 0 0 0 0 0 0 0 0 
0 0 0 0 0 0 0 0 0 
0 0 0 0 0 0 0 0 0 
0 0 0 0 0 0 0 0 0 
0 0 0 0 0 0 0 0 0 
0 0 0 0 0 0 0 0 0 
0 0 0 0 0 0 0 0 0 
0 0 0 0 0 0 0 0 0 
0 0 0 0 0 0 0 0 0 
0 0 0 0 0 0 0 0 0 
0 0 0 0 0 0 0 0 0 
0 0 0 0 0 0 0 0 0 
0 0 0 0 0 0 0 0 0 
0 0 0 0 0 0 0 0 0 
0 0 0 0 0 0 0 0 0 
0 0 0 0 0 0 0 0 0 
0 0 0 0 0 0 0 0 0 
0 0 0 0 0 0 0 0 0 
0 0 0 0 0 0 0 0 0 
0 0 0 0 0 0 0 0 0 
0 0 0 0 0 0 0 0 0 
0 0 0 0 0 0 0 0 0 
0 0 0 0 0 0 0 0 0 
0 0 0 0 0 0 0 0 0 
0 0 0 0 0 0 0 0 0 
0 0 0 0 0 0 0 0 0 
0 0 0 0 0 0 0 0 0 
0 0 0 0 0 0 0 0 0 
0 0 0 0 0 0 0 0 0 
0 0 0 0 0 0 0 0 0 
0 0 0 0 0 0 0 0 0 
0 0 0 0 0 0 0 0 0 
0 0 0 0 0 0 0 0 0 
0 0 0 0 0 0 0 0 0 
0 0 0 0 0 0 0 0 0 
0 0 0 0 0 0 0 0 0 
0 0 0 0 0 0 0 0 0 
0 0 0 0 0 0 0 0 0 
0 0 0 0 0 0 0 0 0 
0 0 0 0 0 0 0 0 0 
0 0 0 0 0 0 0 0 0 
0 0 0 0 0 0 0 0 0 
0 0 0 0 0 0 0 0 0 
0 0 0 0 0 0 0 0 0 
0 0 0 0 0 0 0 0 0 
0 0 0 0 0 0 0 0 0 
0 0 0 0 0 0 0 0 0 
0 0 0 0 0 0 0 0 0 
0 0 0 0 0 0 0 0 0 
0 0 0 0 0 0 0 0 0 
0 0 0 0 0 0 0 0 0 
0 0 0 0 0 0 0 0 0 
0 0 0 0 0 0 0 0 0 
0 0 0 0 0 0 0 0 0 
0 0 0 0 0 0 0 0 0 
0 0 0 0 0 0 0 0 0 
0 0 0 0 0 0 0 0 0 
0 0 0 0 0 0 0 0 0 
0 0 0 0 0 0 0 0 0 
0 0 0 0 0 0 0 0 0 
0 0 0 0 0 0 0 0 0 
0 0 0 0 0 0 0 0 0 
0 0 0 0 0 0 0 0 0 
0 0 0 0 0 0 0 0 0 
0 0 0 0 0 0 0 0 0 
0 0 0 0 0 0 0 0 0 
0 0 0 0 0 0 0 0 0 
0 0 0 0 0 0 0 0 0 
0 0 0 0 0 0 0 0 0 
0 0 0 0 0 0 0 0 0 
0 0 0 0 0 0 0 0 0 
0 0 0 0 0 0 0 0 0 
0 0 0 0 0 0 0 0 0 
0 0 0 0 0 0 0 0 0 
0 0 0 0 0 0 0 0 0 
0 0 0 0 0 0 0 0 0 
0 0 0 0 0 0 0 0 0 
0 0 0 0 0 0 0 0 0 
0 0 0 0 0 0 0 0 0 
0 0 0 0 0 0 0 0 0 
0 0 0 0 0 0 0 0 0 
0 0 0 0 0 0 0 0 0 
0 0 0 0 0 0 0 0 0 
0 0 0 0 0 0 0 0 0 
0 0 0 0 0 0 0 0 0 
0 0 0 0 0 0 0 0 0 
0 0 0 0 0 0 0 0 0 
0 0 0 0 0 0 0 0 0 
0 0 0 0 0 0 0 0 0 
0 0 0 0 0 0 0 0 0 
0 0 0 0 0 0 0 0 0 
0 0 0 0 0 0 0 0 0 
0 0 0 0 0 0 0 0 0 
0 0 0 0 0 0 0 0 0 
0 0 0 0 0 0 0 0 0 
0 0 0 0 0 0 0 0 0 
0 0 0 0 0 0 0 0 0 
0 0 0 0 0 0 0 0 0 
0 0 0 0 0 0 0 0 0 
0 0 0 0 0 0 0 0 0 
0 0 0 0 0 0 0 0 0 
0 0 0 0 0 0 0 0 0 
0 0 0 0 0 0 0 0 0 
0 0 0 0 0 0 0 0 0 
0 0 0 0 0 0 0 0 0 
0 0 0 0 0 0 0 0 0 
0 0 0 0 0 0 0 0 0 
0 0 0 0 0 0 0 0 0 
0 0 0 0 0 0 0 0 0 
0 0 0 0 0 0 0 0 0 
0 0 0 0 0 0 0 0 0 
0 0 0 0 0 0 0 0 0 
0 0 0 0 0 0 0 0 0 
0 0 0 0 0 0 0 0 0 
0 0 0 0 0 0 0 0 0 
0 0 0 0 0 0 0 0 0 
0 0 0 0 0 0 0 0 0 
0 0 0 0 0 0 0 0 0 
0 0 0 0 0 0 0 0 0 
0 0 0 0 0 0 0 0 0 
0 0 0 0 0 0 0 0 0 
0 0 0 0 0 0 0 0 0 
0 0 0 0 0 0 0 0 0 
0 0 0 0 0 0 0 0 0 
0 0 0 0 0 0 0 0 0 
0 0 0 0 0 0 0 0 0 
0 0 0 0 0 0 0 0 0 
0 0 0 0 0 0 0 0 0 
0 0 0 0 0 0 0 0 0 
0 0 0 0 0 0 0 0 0 
0 0 0 0 0 0 0 0 0 
0 0 0 0 0 0 0 0 0 
0 0 0 0 0 0 0 0 0 
0 0 0 0 0 0 0 0 0 
0 0 0 0 0 0 0 0 0 
0 0 0 0 0 0 0 0 0 
0 0 0 0 0 0 0 0 0 
0 0 0 0 0 0 0 0 0 
0 0 0 0 0 0 0 0 0 
0 0 0 0 0 0 0 0 0 
0 0 0 0 0 0 0 0 0 
0 0 0 0 0 0 0 0 0 
0 0 0 0 0 0 0 0 0 
0 0 0 0 0 0 0 0 0 
0 0 0 0 0 0 0 0 0 
0 0 0 0 0 0 0 0 0 
0 0 0 0 0 0 0 0 0 
0 0 0 0 0 0 0 0 0 
0 0 0 0 0 0 0 0 0 
0 0 0 0 0 0 0 0 0 
0 0 0 0 0 0 0 0 0 
0 0 0 0 0 0 0 0 0 
0 0 0 0 0 0 0 0 0 
0 0 0 0 0 0 0 0 0 
0 0 0 0 0 0 0 0 0 
0 0 0 0 0 0 0 0 0 
0 0 0 0 0 0 0 0 0 
0 0 0 0 0 0 0 0 0 
0 0 0 0 0 0 0 0 0 
0 0 0 0 0 0 0 0 0 
0 0 0 0 0 0 0 0 0 
0 0 0 0 0 0 0 0 0 
0 0 0 0 0 0 0 0 0 
0 0 0 0 0 0 0 0 0 
0 0 0 0 0 0 0 0 0 
0 0 0 0 0 0 0 0 0 
0 0 0 0 0 0 0 0 0 
0 0 0 0 0 0 0 0 0 
0 0 0 0 0 0 0 0 0 
0 0 0 0 0 0 0 0 0 
0 0 0 0 0 0 0 0 0 
0 0 0 0 0 0 0 0 0 
0 0 0 0 0 0 0 0 0 
0 0 0 0 0 0 0 0 0 
0 0 0 0 0 0 0 0 0 
0 0 0 0 0 0 0 0 0 
0 0 0 0 0 0 0 0 0 
0 0 0 0 0 0 0 0 0 
0 0 0 0 0 0 0 0 0 
0 0 0 0 0 0 0 0 0 
0 0 0 0 0 0 0 0 0 
0 0 0 0 0 0 0 0 0 
0 0 0 0 0 0 0 0 0 
0 0 0 0 0 0 0 0 0 
0 0 0 0 0 0 0 0 0 
0 0 0 0 0 0 
v 3 587 double
-0.00189774 0.00613799 -0.00183291 0.0705565 0.00651691 2.86938e-05 0.0589076 0.00122593 0.0248557 
0.00579046 -0.000516617 -0.0182289 -0.0253048 -0.00368407 -3.1556e-05 -0.0205792 0.0393318 -6.54835e-13 
0.03917 -0.0103436 -0.00559097 -0.00904123 0.0288147 -6.1367e-05 -0.00323075 0.0288782 -2.7589e-07 
0.000540518 0.00580863 -6.45643e-13 0.00421916 0.0117307 4.19751e-13 0.161067 0.122288 -0.0658404 
0.0232667 -0.00551861 -0.00461611 0.0357652 0.0180769 -0.00187222 0.0457781 0.0231418 -0.028047 
0.0359011 0.0217716 9.50276e-06 -0.0233937 -0.00354655 4.36145e-09 -0.059484 0.0277831 -0.0397599 
0.00778822 -0.030679 -0.00990551 -0.0090025 0.0221977 -0.00025278 0.029362 0.128615 0.00793399 
0.0798385 -0.154452 0.159793 0.0273779 0.0449787 0.0354365 0.0808996 0.0166427 -2.69195e-05 
-0.0105873 0.0195934 -3.16446e-13 -0.0408851 -0.0597418 -2.24479e-06 0.0261839 -0.0736145 0.0454659 
0.0363743 -0.00361043 -0.00159532 0.0565931 0.154579 0.144505 -0.0262115 -0.218603 0.00573157 
0.054315 0.0104432 0.0101188 0.0156231 0.0751566 5.67422e-13 -0.0369815 -0.0528334 -0.0124971 
0.0379028 -0.2019 0.00189108 -0.104861 -0.146771 0.0367975 0.0142642 -0.0781137 -0.0185185 
-0.0260601 0.0223403 0.0220881 -0.0958216 -0.0446088 0.0992575 0.0335273 0.00278841 0.00351091 
0.0506156 -0.0199182 -0.000386528 -0.0412531 0.0751816 -2.16564e-05 -0.110263 -0.0803205 -0.00365944 
-0.0531479 -0.0479742 -0.00914184 -0.126046 -0.0493598 -0.00198295 -0.213633 -0.141525 -0.0374798 
0.160955 0.0983476 -0.00570531 -0.0293443 0.0363646 -0.00763992 0.00618201 0.0254495 0.00030764 
-0.066195 0.104419 -0.000108272 -0.209943 -0.0113352 0.139586 0.047241 -0.00185512 -0.00910587 
-0.0124445 0.033688 -8.38872e-13 -0.00563096 -0.00883815 0.000359183 0.00448259 0.0173524 -0.00153915 
0.00660802 -0.185143 -0.317993 -0.0192116 0.0827024 4.09596e-05 -0.0410354 0.0383401 -0.0414974 
0.11876 -0.0217134 -0.0276855 0.00415223 -0.0236668 1.83229e-09 -0.0287615 0.0131279 7.39784e-05 
0.00487504 0.0218697 2.30118e-13 -0.032283 0.0208553 -5.73985e-08 -0.0904804 0.0595211 0.219987 
0.0598629 -0.0375436 0.0825224 -0.0785022 0.0190992 -0.0277456 0.00644813 -0.0218281 -6.54834e-13 
-0.0309348 0.0139113 2.18001e-06 -0.00422092 -0.00606048 -4.65875e-13 0.00671533 -0.00999827 1.42165e-06 
0.0103272 -0.0505636 -6.54835e-13 0.12502 0.0303414 -0.000502496 0.0441848 -0.0900346 0.0112423 
-0.0103012 -0.00348897 -1.39629e-07 -0.0454944 -0.0360654 -0.000264103 -0.00850989 0.00804375 2.37946e-06 
0.00500609 0.000682686 0.000591604 0.00497655 -0.0134905 2.1167e-05 0.0125272 -0.0119363 -5.17581e-13 
-0.0092455 -0.0403791 5.54072e-10 0.0132057 0.015823 0.000256546 -0.305683 0.0583511 -0.0313778 
-0.0207998 0.0180514 -0.000266504 0.0411023 -0.0585119 0.0678973 -0.104908 -0.0780817 0.206179 
-0.0458492 0.0144252 -7.96729e-06 -0.0251021 -0.0728386 6.35538e-09 -0.0287928 -0.0161414 2.27947e-08 
-0.00148438 -0.00820838 -2.59552e-08 0.00330072 -0.00949981 1.23099e-08 0.00435358 0.0026982 0.00114964 
0.0221012 -0.00827597 -2.86632e-11 -0.00742323 -0.0167034 -8.4573e-09 -0.00654035 -0.000425804 -1.53313e-05 
-0.00983531 -0.0232437 -5.01588e-09 -0.0552728 -0.0357789 0.000364973 -0.00037555 -0.0193498 -9.53526e-07 
0.0189586 0.0386531 -5.28414e-13 -0.0618732 0.0437777 0.00211717 -0.0489545 -0.0470831 -2.2735e-12 
-0.153333 -0.360921 0.441142 -0.013513 -0.0431193 0.0717133 0.0188256 -0.00861532 -4.40784e-06 
0.0129243 0.00565197 -4.65203e-13 -0.0705497 -0.0276282 -0.000783561 0.001735 0.00887374 4.04847e-14 
-0.029799 -0.00308331 0.000879562 8.71427e-05 0.00169062 1.93324e-12 -0.0850332 -0.0504236 7.2263e-05 
0.0131208 -0.022639 6.09382e-13 -0.00824815 -0.0258453 -9.4898e-09 0.0169094 0.00432764 -1.53121e-06 
0.0175039 0.0124822 -0.0349704 -0.092773 0.0824966 0.022748 -0.00648555 -0.0169119 -1.59418e-05 
0.0280226 -0.033454 0.000878415 0.0194689 0.0296178 0.0140451 -0.0842082 0.0724372 0.026563 
0.0104512 -0.0126153 -0.00142186 0.0433124 -0.00835319 -0.107407 0.0379206 -0.0711474 4.86817e-13 
-0.0546284 0.0120948 3.95793e-10 0.00309346 -0.0106081 5.43617e-09 -0.0937993 -0.0423461 -0.00127674 
0.058248 -0.12655 0.0723315 -0.223811 0.151515 0.0126918 -0.169123 0.366071 0.0804888 
-0.0103845 0.0438114 0.032065 0.0691645 -0.0883024 -5.91625e-13 -0.0223652 0.0597144 6.19744e-07 
0.0254673 0.00352525 -1.05636e-07 0.0262615 -0.123941 -0.0118806 -0.0510095 -0.0066048 2.66099e-08 
-0.0307513 -0.0363075 -2.96892e-10 -0.0351412 -0.042733 -6.43143e-07 -0.0194777 -0.0198454 -2.79627e-09 
-0.0662536 -0.0370691 0.00524532 -0.0493026 -0.0361074 0.010382 -0.212415 0.00707474 -0.0262357 
0.077817 0.307797 0.0230928 0.0318004 0.0800976 0.0529285 0.000425731 -0.0485729 -0.0182319 
0.00780028 0.0026987 0.00818096 0.057915 0.000940941 -0.0505053 0.00260761 -0.00150097 -1.5123e-09 
-0.040438 -0.0339678 -1.25528e-06 -0.0502732 -0.0252498 -4.852e-09 -0.0308244 0.0101225 -7.46473e-12 
-0.0391465 -0.0716697 0.000541754 0.0524222 0.0773784 -9.1369e-13 0.0147427 0.0237275 -0.000497453 
-0.513219 0.183706 -0.23297 0.0761701 -0.00851209 0.0200051 -0.00945644 0.0883981 1.85067e-07 
-0.0125067 0.00113461 1.81541e-07 0.00612828 0.00131588 -1.713e-05 0.00244304 -0.0249466 0.00372369 
-0.0611482 0.0307638 -7.72567e-07 0.0275485 0.086202 2.19459e-09 -0.0620752 -0.062105 -0.0017626 
0.00358673 0.0300299 7.91458e-06 -0.0470753 -0.0491975 0.0138637 -0.0632762 0.0228205 0.0196409 
0.020429 -0.0407937 -0.012961 0.117987 -0.0444196 0.00858676 0.0797566 -0.0587879 7.71292e-07 
-0.000714763 -0.000136918 1.61573e-11 0.00620807 0.0117598 -1.81571e-06 -0.0124929 -0.00596898 -0.0201266 
-0.0421392 -0.0180719 0.00584406 -0.0194742 -0.012914 0.000189644 0.0280731 0.0462358 0.00194652 
-0.0792189 -0.297726 0.0295059 0.0827219 0.051865 2.08407e-05 0.0911622 -0.0715223 -0.00049232 
0.0622214 0.0354849 -3.76739e-07 0.00313006 0.00656327 7.84363e-06 -0.0324578 0.00332257 -2.44581e-13 
0.0953394 0.0821064 -3.3878e-13 0.0636867 -0.109884 -1.51796e-07 -0.0103334 0.0906686 -5.36845e-10 
0.0382505 -0.00158484 6.7498e-07 0.107346 -0.0661372 -5.86585e-07 -0.0762719 -0.00415978 -9.14236e-05 
-0.00536381 -0.0969095 -2.25514e-08 -0.0694553 0.096824 4.01008e-06 -0.0553199 0.0846377 1.03696e-13 
0.0010645 0.0288479 -1.49148e-13 0.169408 0.133316 8.27588e-06 0.0959954 -0.138522 -3.32433e-10 
-0.034918 0.0801796 0.0130864 -0.0444983 0.0527262 7.5922e-13 -0.097205 0.0640963 -0.0132359 
0.00839343 0.0158881 -0.000335552 -0.0246442 -0.00469254 4.67359e-13 0.0814541 0.055526 0.00539817 
0.013133 -0.0785217 0.0060959 0 0 0.520677 0.0148575 0.00196802 6.02172e-06 
0.00120597 -0.00431904 6.09382e-13 -0.0334659 -0.0169424 -0.0111675 -0.0340112 0.0166959 -0.000148973 
0.00760749 -0.223136 0.0796872 -0.0105846 0.0715433 0.073753 0.00464336 -0.00435156 2.14036e-05 
-0.111067 0.135497 0.00100052 0.158584 0.0845102 0.000109275 0.037095 -0.0144264 0.0329521 
0.00663784 0.00604588 7.35242e-07 0.0306037 0.0306904 -3.61171e-05 -0.0714669 0.0444447 -0.00033162 
-0.0466604 0.033772 -0.00636637 -0.0613458 0.0971086 0.0514168 -0.00457966 0.0835667 -0.000542831 
-0.0115139 0.0244767 -0.00184161 0.00901004 -0.0190423 -0.00244011 0.00632239 0.0226688 -8.13844e-06 
-0.0293854 -0.0398135 6.10669e-08 0.0653537 -0.0161256 0.224685 -0.057064 0.0405722 -6.56878e-05 
-0.0922409 0.0504201 0.0297961 0.0152375 0.0320253 -6.42243e-13 -0.00282758 0.000429725 0.00318573 
-0.0199451 -0.0214435 -0.000365541 -0.0168247 -0.0143726 0.0101134 -0.0739206 -0.0440504 8.76913e-05 
-0.0702569 -0.0379699 0.00787655 0.151126 0.0729957 -0.0150029 -0.0232032 0.177149 3.10776e-05 
-0.0538681 0.05353 0.172539 0.0582015 -0.0204581 2.73204e-05 0.00571402 -0.0365455 0.000842961 
-0.00588937 0.00214531 0.00319732 -0.0130267 0.029685 -0.0410796 -0.0192872 -0.0152905 0.00115004 
0.00684843 0.0599779 0.00859333 0.0134597 -0.0077342 -2.69062e-05 0.0152341 -0.00294422 2.04859e-05 
0.00822892 -0.0191914 -1.67962e-06 -0.00242481 -0.0393057 -0.0103155 -0.00366257 0.00477105 0.000148422 
-0.0835215 -0.03506 -0.00781258 -0.0509993 0.0367455 -0.00510912 0.30673 -0.0599245 0.0573177 
0.0619781 -0.0172071 -0.00656477 0.00685493 0.00479476 0.000157638 -0.0116599 0.00903998 -4.61608e-06 
-0.00834546 0.00648269 1.92807e-06 0.00960562 -0.0207622 -3.41112e-13 0.117343 0.128976 -0.0209199 
0.100671 0.103994 -0.0281977 0.0186082 -0.00365361 4.84856e-06 0.0171295 -0.0231261 2.98645e-05 
0.0151394 -0.0721627 0.0163498 -0.00539035 -0.00962709 -0.00442607 0.00614458 0.0132679 -0.000210929 
-0.0661243 0.0266092 -0.000850624 -0.0558735 0.0219672 -0.000478522 -0.0413887 -0.0430893 0.0636044 
0.0196413 -0.000882755 -0.000630818 -0.00705563 -0.0321982 -0.0607641 0.029215 -0.00153402 -0.0383511 
-0.122957 0.0741427 -0.183228 0.133632 0.136218 -0.103529 0.168192 -0.110373 0.22142 
0.251784 -0.0817702 0.1219 0.0355337 -0.0508758 -0.0305048 0.0399879 -0.024014 -0.0638065 
-0.00284415 0.164993 0.0941495 -0.0490822 0.0971619 0.182028 0.0512492 -0.263325 0.0722018 
-0.00166992 -0.036028 0.0656765 -0.0797169 0.301868 0.0583156 0.0658242 0.154297 0.37272 
-0.0394064 0.0183261 -0.0958805 0.00373253 -0.118339 -0.0783732 -0.332385 0.481659 -0.265724 
-0.125472 0.11919 -0.23113 -0.111136 -0.124618 0.0133761 -0.0773064 -0.0989479 -0.0944275 
0.00588364 -0.102081 -0.0565588 -0.00752165 0.152565 0.188073 -0.0865944 -0.0887589 0.242984 
-0.144433 -0.0660842 -0.116655 0.0134454 0.0234577 -0.00681271 -0.13304 0.266469 -0.190678 
0.0874312 -0.123673 -0.0602853 -0.150372 -0.231397 -0.23701 0.0349857 0.121233 0.462528 
0.0688954 0.116875 -0.186444 0.00497562 0.0060999 -0.0439766 -0.0856483 0.0166837 -0.148821 
-0.0399776 0.0210479 0.00760729 -0.0366919 0.021554 -0.0519618 0.096257 0.230847 0.284757 
-0.000651582 -0.148997 -0.0890119 0.0350521 -0.0460875 -0.0180267 -0.0204771 -0.0564503 -0.115226 
0.0793156 -0.00660335 -0.192418 -0.0649989 -0.0127535 -0.108408 0.04872 0.0205218 0.0509613 
0.00377316 -0.0946622 -0.05313 -0.210237 0.0475835 0.0751275 -0.0546217 -0.0343739 -0.0250655 
-0.1677 -0.267377 0.0159053 0.0791204 -0.00453426 -0.0471866 -0.469262 -0.0860501 -0.168923 
-0.0508873 -0.0913453 -0.0317449 -0.000250244 -0.0299783 -0.173777 0.0553956 -0.00162177 -0.0997226 
0.113689 -0.0267624 0.000395416 -0.178179 -0.0909598 0.154634 -0.022969 -0.0308453 -0.157935 
-0.0168527 0.0178008 -0.0166049 0.00788827 0.00441756 0.0395451 0.237528 0.0777219 -0.0588548 
-0.092772 0.0652594 -0.142108 0.00751343 -0.0939711 -0.109906 -0.279537 0.325092 -0.26838 
0.577371 0.377412 0.173165 0.160973 0.0594236 -0.0371589 0.000750862 0.00372833 -0.00463297 
0.0192586 -0.0158835 0.0325364 -0.0871412 0.00966989 -0.0818223 0.0984401 -0.21546 -0.120624 
0.217089 0.045146 -0.0520781 -0.034128 -0.0834832 -0.0605344 -0.120238 0.0655777 -0.021032 
0.0254478 0.12197 -0.0210223 0.231065 -0.0030072 -0.0153559 0.0171105 -0.0136499 -0.12218 
0.0591216 0.108655 0.04725 -0.0970918 0.096106 0.110167 -0.169507 0.131284 -0.196913 
-0.00295553 -0.0438133 0.0211102 -0.0125644 -0.0621894 0.083407 -0.154836 0.0895364 -0.120627 
0.0842814 -0.0675107 -0.0756274 0.0577969 -0.0351256 -0.0177106 0.0284673 -0.117568 -0.0872378 
-0.0994677 0.0645494 0.384284 -0.062951 -0.0225323 0.0849745 0.0939441 -0.0663402 -0.000944261 
-0.0988251 0.0727044 0.0473729 0.176927 -0.00598129 0.151005 0.0122866 -0.00520305 0.0085979 
-0.00860344 0.00054059 -0.0517101 0.0676225 -0.0263072 -0.05017 0.292345 -0.0356407 -0.0254575 
0.234229 0.0445458 -0.00589116 -0.00631041 0.127202 0.00403311 0.0371854 -0.0911714 -0.120831 
-0.205246 -0.148855 -0.0745051 0.0391725 0.0184614 -0.03067 0.00348821 -0.0769317 -0.16117 
-0.0241499 -0.0817985 -0.0926705 -0.0924456 0.199696 -0.0539249 -0.158927 -0.129432 -0.0304388 
0.0716267 -0.216919 0.153559 -0.0930801 -0.0113136 -0.092179 -0.268625 -0.179375 -0.022675 
-0.233842 -0.214246 0.032673 -0.266398 -0.133655 -0.133424 -0.0790832 -0.163297 -0.28589 
-0.207458 -0.0231326 -0.600644 0.392278 -0.542175 -0.903354 0.318364 -0.155625 -0.156168 
0.208855 0.00801393 0.210021 0.331935 -0.00270733 -0.0917143 -0.591871 0.117995 -0.161232 
-0.336831 0.179196 -0.00188674 -0.0726993 -0.0418926 0.0790565 0.0256045 -0.149745 0.22146 
-0.0024102 -0.389857 -0.0303959 0.362097 -0.1495 -0.448168 0.0604846 0.184312 -0.240757 
-0.00290018 -0.0524411 -0.386871 0.0558153 -0.215641 -0.261416 0 0 0.448585 
0.326081 0.101637 0.177448 0.107425 -0.188798 -0.339947 0.38349 -0.190392 0.219687 
-0.0773516 -0.18515 0.476274 0 0 0.401738 0.126841 0.412566 0.0950744 
0.192589 0.148661 -0.290731 -0.0177739 -0.0285685 0.0601212 0.0106754 0.0652242 -0.227387 
0.147005 -0.122018 -0.117248 0.00498235 0.10458 -0.166371 0.315508 -0.493922 0.0915697 
-0.114725 0.058279 -0.323074 0.124773 -0.294952 -0.324858 -0.125601 0.113554 0.255732 