# vtk DataFile Version 4.0
Generated by LIGGGHTS
ASCII
DATASET POLYDATA
POINTS 833 float
-0.0101338 -0.0484594 0.0811205 -0.0045932 -0.0494124 0.0811199 -0.000731015 -0.0486389 0.0821183 
0.00431948 -0.048473 0.0811194 0.007247 -0.0491017 0.0811188 0.0102061 -0.0486192 0.0811208 
0.0131451 -0.0478537 0.0811357 -0.0212213 -0.044729 0.0811209 -0.0182565 -0.0442882 0.0811202 
-0.0165858 -0.046778 0.08112 -0.0151463 -0.0440434 0.0811608 -0.0136577 -0.0474236 0.0811259 
-0.00670391 -0.0465121 0.0811201 -0.00280099 -0.0448253 0.0811207 0.00183145 -0.0455395 0.0812484 
0.00583275 -0.0449112 0.0821183 0.0105346 -0.0453131 0.0811205 0.0137149 -0.0448982 0.0811218 
0.0160232 -0.0470114 0.081119 0.0181233 -0.0448722 0.081122 -0.0282014 -0.0408012 0.0811205 
-0.0238944 -0.0433763 0.0811199 -0.0172429 -0.0410114 0.0811205 -0.0118488 -0.0410952 0.0811205 
-0.00670591 -0.0432057 0.0811225 -0.00561957 -0.040409 0.0811189 -0.00258774 -0.0416453 0.0812733 
0.00433513 -0.0411417 0.0811205 0.00812026 -0.0417746 0.0811197 0.0119527 -0.041478 0.0822219 
0.0191108 -0.0420407 0.0811207 0.0223085 -0.0437977 0.0811205 0.0255574 -0.0413283 0.0821183 
-0.0326322 -0.036988 0.0811203 -0.0306649 -0.0391173 0.081889 -0.028279 -0.0374705 0.0811203 
-0.0252776 -0.0399104 0.0811205 -0.0212847 -0.0401733 0.0821127 -0.0101737 -0.0383492 0.0811205 
-0.00701264 -0.037754 0.0815412 -0.00383063 -0.0379999 0.0812704 0.00636329 -0.0390484 0.0821136 
0.0108541 -0.0372453 0.0811205 0.0160294 -0.0398032 0.0811205 0.0193545 -0.0381819 0.0811205 
0.0220692 -0.0396401 0.0811205 0.0250117 -0.037218 0.0811205 0.0279293 -0.037937 0.0811201 
-0.0351172 -0.0337677 0.0821936 -0.0299389 -0.0339257 0.0821183 -0.0259599 -0.0355617 0.08112 
-0.0232388 -0.0368234 0.0811206 -0.0207219 -0.0351748 0.0811205 -0.0168066 -0.0352215 0.0811205 
-0.0107763 -0.0352791 0.0811209 -0.00780648 -0.0348302 0.0811444 0.0021259 -0.0334221 0.082379 
0.0125296 -0.0346597 0.0811205 0.0161192 -0.0336634 0.0811205 0.0226176 -0.0337981 0.0821141 
0.0276106 -0.0340469 0.0821184 0.0317244 -0.0368962 0.0821183 0.0363689 -0.0337118 0.0811194 
-0.0378779 -0.030902 0.0811166 -0.0241974 -0.0328368 0.0814167 -0.0103278 -0.0323137 0.0811205 
-0.00594232 -0.0318555 0.083421 -0.0024855 -0.0330205 0.0811204 0.013547 -0.0317823 0.0811205 
0.0189772 -0.0323688 0.0811205 0.0308394 -0.0313157 0.0811206 0.0333313 -0.0333639 0.0811206 
0.0336916 -0.0303825 0.0811204 0.0380138 -0.0301858 0.0821179 -0.0402432 -0.0286316 0.0811205 
-0.0369021 -0.0280018 0.0811208 -0.0332023 -0.0291528 0.0821174 -0.0240435 -0.0283015 0.0818827 
-0.0078857 -0.0276031 0.0811203 -0.00129331 -0.0293322 0.0821568 0.0066229 -0.0281461 0.0821183 
0.0116739 -0.0285775 0.0831464 0.0171561 -0.0270675 0.082119 0.0205238 -0.0290719 0.0811205 
0.0229437 -0.0269347 0.0811353 0.026655 -0.028993 0.0821217 0.0304343 -0.0257154 0.0811205 
0.0344844 -0.026592 0.0821186 0.0411289 -0.0278661 0.0811156 -0.0422844 -0.0260188 0.0811246 
-0.0412725 -0.0232027 0.0811157 -0.0389822 -0.0258287 0.0811205 -0.0354468 -0.0237319 0.0811206 
-0.0324395 -0.0239946 0.0811197 -0.0294234 -0.0250695 0.0811247 -0.0105325 -0.0245835 0.0826437 
-0.00561647 -0.0251431 0.0811116 -0.00195121 -0.0253158 0.0811256 0.00191048 -0.0260766 0.0812361 
0.00481963 -0.0229734 0.0827555 0.00884994 -0.023682 0.0811194 0.0151159 -0.0227571 0.0811205 
0.0184957 -0.0232553 0.0811205 0.0385495 -0.0263424 0.0811213 0.0427058 -0.0252968 0.08112 
-0.0455216 -0.0197979 0.0811205 -0.044229 -0.0225277 0.0811205 -0.0408461 -0.0193593 0.0821195 
-0.0376499 -0.0216465 0.0811205 -0.0343496 -0.020917 0.0811401 -0.0313249 -0.0203484 0.0811082 
-0.0273178 -0.0218116 0.0821385 -0.0230933 -0.0212131 0.0811205 -0.018867 -0.0231319 0.0820796 
-0.013628 -0.0205649 0.0821913 -0.00692676 -0.0203841 0.0811209 -0.00424464 -0.0221951 0.0811208 
0.00683019 -0.0199107 0.0811189 0.0105925 -0.0203195 0.082404 0.0142929 -0.0195423 0.0811169 
0.0172902 -0.0196145 0.0811206 0.0201897 -0.0205152 0.0811174 0.0265668 -0.0206359 0.0821183 
0.031847 -0.0210876 0.0821182 0.0375114 -0.0226139 0.0821188 0.0401996 -0.0198239 0.0811193 
0.041385 -0.022599 0.0811205 0.0448289 -0.0208672 0.08112 -0.0457731 -0.0158676 0.082118 
-0.038706 -0.0161364 0.0811188 -0.0257605 -0.0172355 0.0811203 -0.0213036 -0.017682 0.0812237 
-0.0185111 -0.0188931 0.0811204 -0.0157998 -0.0173823 0.0811209 -0.0113031 -0.0170297 0.0811205 
-0.00985931 -0.0196672 0.0811438 -0.0040797 -0.0189273 0.0811205 -0.00116113 -0.015913 0.0821082 
0.002726 -0.0159977 0.0811205 0.0056402 -0.0167909 0.0811183 0.012279 -0.0169106 0.0811204 
0.0191226 -0.0171776 0.081186 0.0318862 -0.0164324 0.0810999 0.0368605 -0.0185756 0.0811205 
0.0427518 -0.0169144 0.0821182 -0.0407788 -0.0128688 0.0821174 -0.0349606 -0.0150371 0.0821197 
-0.0296362 -0.0160691 0.0811203 -0.027146 -0.0135415 0.0811208 -0.0242748 -0.0146288 0.0811207 
-0.0213657 -0.0139413 0.0814489 -0.018194 -0.0148996 0.0811758 -0.0102956 -0.0135709 0.0811214 
-0.00665107 -0.0148964 0.0821182 0.00903307 -0.0151015 0.0811205 0.0115726 -0.0131929 0.0811205 
0.0155581 -0.0138493 0.0821154 0.0310277 -0.0123565 0.0811589 0.0350583 -0.0152245 0.0811205 
0.0386893 -0.0160747 0.081121 0.0378026 -0.0132069 0.0811203 0.0407825 -0.0135558 0.0811206 
0.0446474 -0.0135316 0.0811095 0.0469647 -0.0161871 0.0811237 0.0476677 -0.012925 0.0811205 
-0.0469893 -0.0110141 0.0821166 -0.0370572 -0.0117637 0.0811202 -0.0349958 -0.00956745 0.0811205 
-0.0245339 -0.0111846 0.0811205 -0.0204231 -0.0105853 0.0811229 -0.0134008 -0.010515 0.0811909 
-0.00900794 -0.00969296 0.0821183 -0.00310813 -0.0112246 0.0821183 0.00306427 -0.0126788 0.0811921 
0.00708643 -0.0109438 0.0821183 0.0110612 -0.0101196 0.0811205 0.0204024 -0.0101077 0.0823299 
0.025422 -0.011316 0.0821181 0.0401471 -0.0105994 0.0811204 0.0452441 -0.00957381 0.0822124 
-0.0490478 -0.00772928 0.0811204 -0.044847 -0.00767214 0.0811205 -0.0409999 -0.00787091 0.0822967 
-0.036884 -0.00705413 0.0811446 -0.0320987 -0.00879769 0.0811135 -0.0297414 -0.00695832 0.0810999 
-0.0268849 -0.00860248 0.0811146 -0.0234236 -0.00775147 0.0829337 -0.0162555 -0.00794077 0.0811204 
-0.0123176 -0.0076429 0.0811205 -0.00846144 -0.00520262 0.0811205 0.00195747 -0.00474421 0.0811205 
0.0128141 -0.00642133 0.0821183 0.0181722 -0.00698895 0.0811206 0.0284694 -0.00692959 0.0821183 
0.0375266 -0.0086253 0.0811456 0.0409136 -0.0076896 0.0811202 0.0488506 -0.00778 0.0811196 
-0.0490365 -0.00469027 0.0811205 -0.0418447 -0.00213079 0.0811824 -0.0391134 -0.00351456 0.0811196 
-0.028751 -0.0024366 0.0821208 -0.026387 -0.00551047 0.0811205 -0.0172392 -0.00418586 0.0821177 
-0.0125147 -0.00463789 0.0811207 -0.00702343 -0.00246666 0.0811205 -0.00273809 -0.00490073 0.0821299 
0.00326786 -0.00174316 0.0819837 0.0093521 -0.00513777 0.0838894 0.0300732 -0.00229064 0.0811203 
0.0388179 -0.00425922 0.0821179 0.0425786 -0.00519065 0.0811205 0.0456654 -0.00283225 0.0821134 
0.0494102 -0.0048326 0.0811208 0.0494064 -0.00181619 0.0811201 -0.0494997 -0.00170197 0.0811205 
-0.0471996 0.000481535 0.0811203 -0.0443646 -0.000486435 0.0811074 -0.0418118 0.00124378 0.0811203 
-0.0362993 -0.000861005 0.0821306 -0.0323624 -0.00103234 0.0811209 -0.0247764 -0.000757704 0.0817861 
-0.0172194 0.00110714 0.0821465 -0.010848 -0.00111408 0.082118 -0.00544496 0.00148821 0.0811411 
0.00949858 0.00032252 0.0811205 0.0133471 -0.00103057 0.08112 0.0164314 -0.00119606 0.081165 
0.0216502 0.000697459 0.0811204 0.029495 0.000650421 0.0812346 0.0325246 0.000594792 0.0811207 
0.0428735 0.000534826 0.0811205 -0.0495127 0.00296308 0.0811205 -0.0458983 0.0034549 0.0811205 
-0.0417794 0.0045256 0.0811151 -0.0392148 0.00287675 0.0811203 -0.0362994 0.00359388 0.0811799 
-0.0322012 0.00293257 0.0821211 -0.0284945 0.00165304 0.0811254 -0.025931 0.0032426 0.0811808 
-0.00810936 0.00325504 0.0811205 0.000520522 0.00361835 0.0811205 0.00851268 0.00417724 0.0821153 
0.012597 0.00355118 0.0811623 0.0168421 0.00276859 0.0825029 0.0372615 0.00277764 0.0811205 
0.0402494 0.00200548 0.0811205 0.0435728 0.00449534 0.0821183 0.0484066 0.00193288 0.0821182 
-0.0481839 0.00672221 0.0821182 -0.0433621 0.00806823 0.0821161 -0.0380244 0.00671633 0.0811197 
-0.027446 0.00652097 0.0811205 -0.0240692 0.00797852 0.0811205 -0.0211838 0.00483656 0.0815496 
-0.0188032 0.00694166 0.0811205 -0.00847572 0.00748451 0.0811205 -0.00456798 0.00526343 0.0821196 
0.000844624 0.00914216 0.081202 0.0215092 0.00507735 0.0821203 0.032046 0.00870116 0.08117 
0.0365631 0.00783272 0.0821183 0.039903 0.00582712 0.0811205 0.0479898 0.00691289 0.082113 
-0.0478189 0.0108641 0.0812268 -0.0430816 0.0121832 0.0811162 -0.0392211 0.0108649 0.0821189 
-0.035322 0.010412 0.0813193 -0.0274137 0.0124099 0.0811205 -0.0182275 0.0114611 0.0812116 
-0.0142333 0.0106533 0.0822977 -0.00513509 0.0131045 0.0811205 0.0103316 0.00967635 0.08147 
0.0192603 0.0123526 0.0811205 0.0231991 0.0100638 0.0821183 0.0294177 0.0122858 0.0831124 
0.0392982 0.0111852 0.0811204 0.042809 0.00943966 0.0821183 -0.0373061 0.0154998 0.0821184 
-0.0334397 0.0156721 0.0811188 -0.021242 0.0132334 0.0811205 -0.0141247 0.0153285 0.0811205 
0.000377855 0.0152995 0.0825481 0.0050033 0.0131642 0.0821192 0.0152716 0.0130927 0.0811205 
0.0251437 0.013598 0.0811205 0.0426797 0.014448 0.0821183 -0.0462734 0.0181213 0.0811276 
-0.0423999 0.0181153 0.0821255 -0.0312187 0.0176999 0.0811205 -0.023742 0.0167587 0.0821183 
-0.0200859 0.0196132 0.0811205 -0.0170822 0.0165462 0.0811143 0.00306658 0.0201178 0.0811205 
0.00663264 0.0179087 0.0821183 0.012121 0.0180668 0.0811205 0.0252267 0.0172611 0.0811203 
0.0313839 0.0169196 0.0821159 0.0399688 0.0174268 0.0811205 0.0430181 0.0184853 0.0811205 
0.0461824 0.0181263 0.081118 -0.0449706 0.0210042 0.0811175 -0.0394918 0.0215267 0.0811205 
-0.0347743 0.0198965 0.082107 -0.0312054 0.0213915 0.0811184 -0.0275211 0.0201163 0.0821141 
-0.0230499 0.0223416 0.0821066 -0.0126952 0.0227839 0.0821183 -0.009246 0.0198748 0.0811299 
0.000133296 0.0216203 0.0811783 0.00387967 0.0231625 0.0817137 0.0072944 0.0217896 0.0811205 
[...]
POINT_DATA 833
FIELD FieldData 7
id 1 833 int
32 287 171 90 240 46 95 6 262 
290 199 96 189 166 70 211 12 394 
18 396 457 76 250 39 59 342 24 
366 515 423 19 98 272 178 153 239 
431 119 77 249 531 541 293 87 375 
33 50 444 94 2 316 266 273 137 
204 407 371 45 592 398 258 92 238 
113 280 252 220 207 364 21 256 51 
167 184 173 278 222 468 497 182 296 
549 158 165 426 359 596 498 63 383 
108 428 84 164 338 526 13 421 580 
384 35 354 495 110 187 48 274 132 
263 202 352 259 433 412 260 480 100 
237 234 180 186 353 449 157 221 217 
179 86 144 191 496 304 161 193 337 
101 318 30 416 291 492 229 463 74 
67 134 4 279 218 329 36 151 138 
54 595 637 332 11 377 69 493 255 
102 128 10 185 88 115 351 264 38 
53 169 491 195 188 374 43 174 372 
154 168 236 85 349 194 331 271 546 
507 275 276 172 44 618 355 505 265 
58 356 545 385 369 333 469 336 400 
367 139 324 160 494 334 192 288 368 
253 148 116 233 532 64 146 247 162 
557 230 114 529 567 203 315 149 124 
325 89 381 120 519 451 175 9 437 
111 387 350 241 145 130 105 209 306 
402 141 62 125 242 93 311 425 343 
257 201 143 49 268 107 83 405 22 
465 534 97 409 15 14 227 42 210 
225 26 481 654 550 432 467 248 61 
235 126 159 483 625 599 3 301 155 
448 393 267 302 466 57 5 441 513 
270 524 581 440 598 555 503 181 326 
122 508 420 327 29 1 415 20 521 
224 413 516 389 223 298 231 348 41 
47 121 25 8 292 127 436 533 361 
309 439 205 219 442 140 135 34 404 
376 317 347 536 99 40 23 136 200 
78 129 152 176 232 571 117 443 246 
378 106 579 196 60 344 73 72 103 
244 177 214 133 71 150 380 340 27 
147 37 75 118 391 131 170 215 461 
52 254 112 81 7 142 458 414 163 
212 445 109 56 16 281 190 226 123 
243 251 31 299 479 303 511 300 228 
390 79 358 624 213 597 462 305 523 
547 486 634 667 277 542 548 406 553 
310 607 600 473 283 562 647 345 478 
216 286 392 613 662 346 626 80 294 
330 506 517 429 621 489 17 357 464 
622 360 197 554 422 476 363 438 314 
395 648 636 66 630 295 312 418 591 
671 666 459 535 490 261 403 631 323 
156 91 520 365 322 28 55 610 609 
447 676 206 430 659 510 475 655 573 
563 65 382 455 456 321 399 509 470 
453 651 589 339 341 633 435 632 313 
537 434 530 417 612 572 446 652 373 
574 370 635 500 245 477 460 68 578 
450 488 410 411 424 616 487 282 673 
663 419 328 198 285 484 499 482 388 
335 452 307 582 675 619 544 642 269 
645 661 362 682 565 386 603 650 608 
660 672 556 472 454 551 552 649 319 
646 308 540 588 528 560 670 641 657 
561 584 543 606 289 623 104 640 587 
602 656 502 518 512 501 82 684 653 
669 643 397 629 678 471 558 504 284 
593 570 664 474 427 668 559 320 639 
614 208 620 677 297 576 594 617 485 
183 665 379 681 680 615 514 538 674 
627 687 585 605 401 683 685 611 628 
525 686 644 586 577 569 539 690 527 
575 658 604 679 408 688 522 691 638 
601 701 689 590 699 702 697 695 693 
568 692 698 696 566 700 694 704 703 
708 713 710 711 714 564 583 709 706 
707 717 715 716 712 724 725 705 718 
721 722 723 727 726 728 730 719 720 
729 743 737 742 731 734 735 738 732 
741 740 736 739 744 733 751 754 750 
746 752 755 745 748 747 753 756 749 
767 758 765 764 761 762 769 760 763 
766 768 757 759 778 779 776 777 781 
775 782 774 773 780 772 770 771 786 
789 784 793 791 787 785 790 792 783 
794 788 806 798 805 800 797 807 799 
803 795 802 813 804 801 796 818 810 
817 819 808 816 820 811 814 825 815 
809 829 812 826 830 821 824 831 827 
833 822 832 823 828 
type 1 833 int
1 1 1 1 1 1 1 1 1 
1 1 1 1 1 1 1 1 1 
1 1 1 1 1 1 1 1 1 
1 1 1 1 1 1 1 1 1 
1 1 1 1 1 1 1 1 1 
1 1 1 1 1 1 1 1 1 
1 1 1 1 1 1 1 1 1 
1 1 1 1 1 1 1 1 1 
1 1 1 1 1 1 1 1 1 
1 1 1 1 1 1 1 1 1 
1 1 1 1 1 1 1 1 1 
1 1 1 1 1 1 1 1 1 
1 1 1 1 1 1 1 1 1 
1 1 1 1 1 1 1 1 1 
1 1 1 1 1 1 1 1 1 
1 1 1 1 1 1 1 1 1 
1 1 1 1 1 1 1 1 1 
1 1 1 1 1 1 1 1 1 
1 1 1 1 1 1 1 1 1 
1 1 1 1 1 1 1 1 1 
1 1 1 1 1 1 1 1 1 
1 1 1 1 1 1 1 1 1 
1 1 1 1 1 1 1 1 1 
1 1 1 1 1 1 1 1 1 
1 1 1 1 1 1 1 1 1 
1 1 1 1 1 1 1 1 1 
1 1 1 1 1 1 1 1 1 
1 1 1 1 1 1 1 1 1 
1 1 1 1 1 1 1 1 1 
1 1 1 1 1 1 1 1 1 
1 1 1 1 1 1 1 1 1 
1 1 1 1 1 1 1 1 1 
1 1 1 1 1 1 1 1 1 
1 1 1 1 1 1 1 1 1 
1 1 1 1 1 1 1 1 1 
1 1 1 1 1 1 1 1 1 
1 1 1 1 1 1 1 1 1 
1 1 1 1 1 1 1 1 1 
1 1 1 1 1 1 1 1 1 
1 1 1 1 1 1 1 1 1 
1 1 1 1 1 1 1 1 1 
1 1 1 1 1 1 1 1 1 
1 1 1 1 1 1 1 1 1 
1 1 1 1 1 1 1 1 1 
1 1 1 1 1 1 1 1 1 
1 1 1 1 1 1 1 1 1 
1 1 1 1 1 1 1 1 1 
1 1 1 1 1 1 1 1 1 
1 1 1 1 1 1 1 1 1 
1 1 1 1 1 1 1 1 1 
1 1 1 1 1 1 1 1 1 
1 1 1 1 1 1 1 1 1 
1 1 1 1 1 1 1 1 1 
1 1 1 1 1 1 1 1 1 
1 1 1 1 1 1 1 1 1 
1 1 1 1 1 1 1 1 1 
1 1 1 1 1 1 1 1 1 
1 1 1 1 1 1 1 1 1 
1 1 1 1 1 1 1 1 1 
1 1 1 1 1 1 1 1 1 
1 1 1 1 1 1 1 1 1 
1 1 1 1 1 1 1 1 1 
1 1 1 1 1 1 1 1 1 
1 1 1 1 1 1 1 1 1 
1 1 1 1 1 1 1 1 1 
1 1 1 1 1 1 1 1 1 
1 1 1 1 1 1 1 1 1 
1 1 1 1 1 1 1 1 1 
1 1 1 1 1 1 1 1 1 
1 1 1 1 1 1 1 1 1 
1 1 1 1 1 1 1 1 1 
1 1 1 1 1 1 1 1 1 
1 1 1 1 1 1 1 1 1 
1 1 1 1 1 1 1 1 1 
1 1 1 1 1 1 1 1 1 
1 1 1 1 1 1 1 1 1 
1 1 1 1 1 1 1 1 1 
1 1 1 1 1 1 1 1 1 
1 1 1 1 1 1 1 1 1 
1 1 1 1 1 1 1 1 1 
1 1 1 1 1 1 1 1 1 
1 1 1 1 1 1 1 1 1 
1 1 1 1 1 1 1 1 1 
1 1 1 1 1 1 1 1 1 
1 1 1 1 1 1 1 1 1 
1 1 1 1 1 1 1 1 1 
1 1 1 1 1 1 1 1 1 
1 1 1 1 1 1 1 1 1 
1 1 1 1 1 1 1 1 1 
1 1 1 1 1 1 1 1 1 
1 1 1 1 1 1 1 1 1 
1 1 1 1 1 1 1 1 1 
1 1 1 1 1 
i 3 833 int
0 0 0 0 0 0 0 0 0 
0 0 0 0 0 0 0 0 0 
0 0 0 0 0 0 0 0 0 
0 0 0 0 0 0 0 0 0 
0 0 0 0 0 0 0 0 0 
0 0 0 0 0 0 0 0 0 
0 0 0 0 0 0 0 0 0 
0 0 0 0 0 0 0 0 0 
0 0 0 0 0 0 0 0 0 
0 0 0 0 0 0 0 0 0 
0 0 0 0 0 0 0 0 0 
0 0 0 0 0 0 0 0 0 
0 0 0 0 0 0 0 0 0 
0 0 0 0 0 0 0 0 0 
0 0 0 0 0 0 0 0 0 
0 0 0 0 0 0 0 0 0 
0 0 0 0 0 0 0 0 0 
0 0 0 0 0 0 0 0 0 
0 0 0 0 0 0 0 0 0 
0 0 0 0 0 0 0 0 0 
0 0 0 0 0 0 0 0 0 
0 0 0 0 0 0 0 0 0 
0 0 0 0 0 0 0 0 0 
0 0 0 0 0 0 0 0 0 
0 0 0 0 0 0 0 0 0 
0 0 0 0 0 0 0 0 0 
0 0 0 0 0 0 0 0 0 
0 0 0 0 0 0 0 0 0 
0 0 0 0 0 0 0 0 0 
0 0 0 0 0 0 0 0 0 
0 0 0 0 0 0 0 0 0 
0 0 0 0 0 0 0 0 0 
0 0 0 0 0 0 0 0 0 
0 0 0 0 0 0 0 0 0 
0 0 0 0 0 0 0 0 0 
0 0 0 0 0 0 0 0 0 
0 0 0 0 0 0 0 0 0 
0 0 0 0 0 0 0 0 0 
0 0 0 0 0 0 0 0 0 
0 0 0 0 0 0 0 0 0 
0 0 0 0 0 0 0 0 0 
0 0 0 0 0 0 0 0 0 
0 0 0 0 0 0 0 0 0 
0 0 0 0 0 0 0 0 0 
0 0 0 0 0 0 0 0 0 
0 0 0 0 0 0 0 0 0 
0 0 0 0 0 0 0 0 0 
0 0 0 0 0 0 0 0 0 
0 0 0 0 0 0 0 0 0 
0 0 0 0 0 0 0 0 0 
0 0 0 0 0 0 0 0 0 
0 0 0 0 0 0 0 0 0 
0 0 0 0 0 0 0 0 0 
0 0 0 0 0 0 0 0 0 
0 0 0 0 0 0 0 0 0 
0 0 0 0 0 0 0 0 0 
0 0 0 0 0 0 0 0 0 
0 0 0 0 0 0 0 0 0 
0 0 0 0 0 0 0 0 0 
0 0 0 0 0 0 0 0 0 
0 0 0 0 0 0 0 0 0 
0 0 0 0 0 0 0 0 0 
0 0 0 0 0 0 0 0 0 
0 0 0 0 0 0 0 0 0 
0 0 0 0 0 0 0 0 0 
0 0 0 0 0 0 0 0 0 
0 0 0 0 0 0 0 0 0 
0 0 0 0 0 0 0 0 0 
0 0 0 0 0 0 0 0 0 
0 0 0 0 0 0 0 0 0 
0 0 0 0 0 0 0 0 0 
0 0 0 0 0 0 0 0 0 
0 0 0 0 0 0 0 0 0 
0 0 0 0 0 0 0 0 0 
0 0 0 0 0 0 0 0 0 
0 0 0 0 0 0 0 0 0 
0 0 0 0 0 0 0 0 0 
0 0 0 0 0 0 0 0 0 
0 0 0 0 0 0 0 0 0 
0 0 0 0 0 0 0 0 0 
0 0 0 0 0 0 0 0 0 
0 0 0 0 0 0 0 0 0 
0 0 0 0 0 0 0 0 0 
0 0 0 0 0 0 0 0 0 
0 0 0 0 0 0 0 0 0 
0 0 0 0 0 0 0 0 0 
0 0 0 0 0 0 0 0 0 
0 0 0 0 0 0 0 0 0 
0 0 0 0 0 0 0 0 0 
0 0 0 0 0 0 0 0 0 
0 0 0 0 0 0 0 0 0 
0 0 0 0 0 0 0 0 0 
0 0 0 0 0 0 0 0 0 
0 0 0 0 0 0 0 0 0 
0 0 0 0 0 0 0 0 0 
0 0 0 0 0 0 0 0 0 
0 0 0 0 0 0 0 0 0 
0 0 0 0 0 0 0 0 0 
0 0 0 0 0 0 0 0 0 
0 0 0 0 0 0 0 0 0 
0 0 0 0 0 0 0 0 0 
0 0 0 0 0 0 0 0 0 
0 0 0 0 0 0 0 0 0 
0 0 0 0 0 0 0 0 0 
0 0 0 0 0 0 0 0 0 
0 0 0 0 0 0 0 0 0 
0 0 0 0 0 0 0 0 0 
0 0 0 0 0 0 0 0 0 
0 0 0 0 0 0 0 0 0 
0 0 0 0 0 0 0 0 0 
0 0 0 0 0 0 0 0 0 
0 0 0 0 0 0 0 0 0 
0 0 0 0 0 0 0 0 0 
0 0 0 0 0 0 0 0 0 
0 0 0 0 0 0 0 0 0 
0 0 0 0 0 0 0 0 0 
0 0 0 0 0 0 0 0 0 
0 0 0 0 0 0 0 0 0 
0 0 0 0 0 0 0 0 0 
0 0 0 0 0 0 0 0 0 
0 0 0 0 0 0 0 0 0 
0 0 0 0 0 0 0 0 0 
0 0 0 0 0 0 0 0 0 
0 0 0 0 0 0 0 0 0 
0 0 0 0 0 0 0 0 0 
0 0 0 0 0 0 0 0 0 
0 0 0 0 0 0 0 0 0 
0 0 0 0 0 0 0 0 0 
0 0 0 0 0 0 0 0 0 
0 0 0 0 0 0 0 0 0 
0 0 0 0 0 0 0 0 0 
0 0 0 0 0 0 0 0 0 
0 0 0 0 0 0 0 0 0 
0 0 0 0 0 0 0 0 0 
0 0 0 0 0 0 0 0 0 
0 0 0 0 0 0 0 0 0 
0 0 0 0 0 0 0 0 0 
0 0 0 0 0 0 0 0 0 
0 0 0 0 0 0 0 0 0 
0 0 0 0 0 0 0 0 0 
0 0 0 0 0 0 0 0 0 
0 0 0 0 0 0 0 0 0 
0 0 0 0 0 0 0 0 0 
0 0 0 0 0 0 0 0 0 
0 0 0 0 0 0 0 0 0 
0 0 0 0 0 0 0 0 0 
0 0 0 0 0 0 0 0 0 
0 0 0 0 0 0 0 0 0 
0 0 0 0 0 0 0 0 0 
0 0 0 0 0 0 0 0 0 
0 0 0 0 0 0 0 0 0 
0 0 0 0 0 0 0 0 0 
0 0 0 0 0 0 0 0 0 
0 0 0 0 0 0 0 0 0 
0 0 0 0 0 0 0 0 0 
0 0 0 0 0 0 0 0 0 
0 0 0 0 0 0 0 0 0 
0 0 0 0 0 0 0 0 0 
0 0 0 0 0 0 0 0 0 
0 0 0 0 0 0 0 0 0 
0 0 0 0 0 0 0 0 0 
0 0 0 0 0 0 0 0 0 
0 0 0 0 0 0 0 0 0 
0 0 0 0 0 0 0 0 0 
0 0 0 0 0 0 0 0 0 
0 0 0 0 0 0 0 0 0 
0 0 0 0 0 0 0 0 0 
0 0 0 0 0 0 0 0 0 
0 0 0 0 0 0 0 0 0 
0 0 0 0 0 0 0 0 0 
0 0 0 0 0 0 0 0 0 
0 0 0 0 0 0 0 0 0 
0 0 0 0 0 0 0 0 0 
0 0 0 0 0 0 0 0 0 
0 0 0 0 0 0 0 0 0 
0 0 0 0 0 0 0 0 0 
0 0 0 0 0 0 0 0 0 
0 0 0 0 0 0 0 0 0 
0 0 0 0 0 0 0 0 0 
0 0 0 0 0 0 0 0 0 
0 0 0 0 0 0 0 0 0 
0 0 0 0 0 0 0 0 0 
0 0 0 0 0 0 0 0 0 
0 0 0 0 0 0 0 0 0 
0 0 0 0 0 0 0 0 0 
0 0 0 0 0 0 0 0 0 
0 0 0 0 0 0 0 0 0 
0 0 0 0 0 0 0 0 0 
0 0 0 0 0 0 0 0 0 
0 0 0 0 0 0 0 0 0 
0 0 0 0 0 0 0 0 0 
0 0 0 0 0 0 0 0 0 
0 0 0 0 0 0 0 0 0 
0 0 0 0 0 0 0 0 0 
0 0 0 0 0 0 0 0 0 
0 0 0 0 0 0 0 0 0 
0 0 0 0 0 0 0 0 0 
0 0 0 0 0 0 0 0 0 
0 0 0 0 0 0 0 0 0 
0 0 0 0 0 0 0 0 0 
0 0 0 0 0 0 0 0 0 
0 0 0 0 0 0 0 0 0 
0 0 0 0 0 0 0 0 0 
0 0 0 0 0 0 0 0 0 
0 0 0 0 0 0 0 0 0 
0 0 0 0 0 0 0 0 0 
0 0 0 0 0 0 0 0 0 
0 0 0 0 0 0 0 0 0 
0 0 0 0 0 0 0 0 0 
0 0 0 0 0 0 0 0 0 
0 0 0 0 0 0 0 0 0 
0 0 0 0 0 0 0 0 0 
0 0 0 0 0 0 0 0 0 
0 0 0 0 0 0 0 0 0 
0 0 0 0 0 0 0 0 0 
0 0 0 0 0 0 0 0 0 
0 0 0 0 0 0 0 0 0 
0 0 0 0 0 0 0 0 0 
0 0 0 0 0 0 0 0 0 
0 0 0 0 0 0 0 0 0 
0 0 0 0 0 0 0 0 0 
0 0 0 0 0 0 0 0 0 
0 0 0 0 0 0 0 0 0 
0 0 0 0 0 0 0 0 0 
0 0 0 0 0 0 0 0 0 
0 0 0 0 0 0 0 0 0 
0 0 0 0 0 0 0 0 0 
0 0 0 0 0 0 0 0 0 
0 0 0 0 0 0 0 0 0 
0 0 0 0 0 0 0 0 0 
0 0 0 0 0 0 0 0 0 
0 0 0 0 0 0 0 0 0 
0 0 0 0 0 0 0 0 0 
0 0 0 0 0 0 0 0 0 
0 0 0 0 0 0 0 0 0 
0 0 0 0 0 0 0 0 0 
0 0 0 0 0 0 0 0 0 
0 0 0 0 0 0 0 0 0 
0 0 0 0 0 0 0 0 0 
0 0 0 0 0 0 0 0 0 
0 0 0 0 0 0 0 0 0 
0 0 0 0 0 0 0 0 0 
0 0 0 0 0 0 0 0 0 
0 0 0 0 0 0 0 0 0 
0 0 0 0 0 0 0 0 0 
0 0 0 0 0 0 0 0 0 
0 0 0 0 0 0 0 0 0 
0 0 0 0 0 0 0 0 0 
0 0 0 0 0 0 0 0 0 
0 0 0 0 0 0 0 0 0 
0 0 0 0 0 0 0 0 0 
0 0 0 0 0 0 0 0 0 
0 0 0 0 0 0 0 0 0 
0 0 0 0 0 0 0 0 0 
0 0 0 0 0 0 0 0 0 
0 0 0 0 0 0 0 0 0 
0 0 0 0 0 0 0 0 0 
0 0 0 0 0 0 0 0 0 
0 0 0 0 0 0 0 0 0 
0 0 0 0 0 0 0 0 0 
0 0 0 0 0 0 0 0 0 
0 0 0 0 0 0 0 0 0 
0 0 0 0 0 0 0 0 0 
0 0 0 0 0 0 0 0 0 
0 0 0 0 0 0 0 0 0 
0 0 0 0 0 0 0 0 0 
0 0 0 0 0 0 0 0 0 
0 0 0 0 0 0 0 0 0 
0 0 0 0 0 0 0 0 0 
0 0 0 0 0 0 0 0 0 
0 0 0 0 0 0 0 0 0 
0 0 0 0 0 0 0 0 0 
0 0 0 0 0 0 0 0 0 
0 0 0 0 0 0 0 0 0 
0 0 0 0 0 0 0 0 0 
0 0 0 0 0 0 0 0 0 
0 0 0 0 0 0 0 0 0 
0 0 0 0 0 0 
v 3 833 double
-0.0116921 0.00614438 4.8296e-13 0.0024622 0.000277318 0.000777253 0.0143091 -0.00267299 -0.00126375 
0.00732556 0.00137719 -0.000261945 0.00784029 0.00329282 -0.00113462 0.00582989 0.000801927 0.000341415 
0.000727015 0.0161381 0.00349298 -0.00800367 0.0151149 0.00248746 -0.00977261 0.0316617 0.00368762 
-0.0421015 0.00110844 0.000366953 -0.0575025 0.02888 0.0249994 -0.0459199 -0.0314363 0.0044147 
-0.00420588 -0.0146792 0.00684409 -0.00254683 0.0160526 -0.000287255 0.0144169 0.0138536 -0.052815 
0.0249296 -0.00874309 0.000155013 -0.0606222 -0.00850884 -4.65649e-13 -0.0159978 0.0358186 -0.000326599 
0.00747088 0.00394586 -0.00148152 -0.0149671 0.026545 -0.00142219 -0.0153632 0.0146297 3.45274e-06 
-0.0143005 0.00104286 -0.00208506 0.0176665 0.0308359 5.6657e-08 -0.0277058 0.0181982 -1.14177e-06 
0.00542371 -0.0273952 0.00620539 -0.0425415 0.00991484 0.010783 -0.0160014 0.0343445 -0.0201289 
-0.0263097 -0.0109057 -6.33209e-08 -0.033585 0.0266783 0.0110521 -0.0235435 0.0385507 0.00163108 
-0.0202904 0.0276508 0.000623158 -0.0199349 0.00101414 -6.54834e-13 -0.00893898 -0.00836518 -9.55104e-06 
-0.00124991 0.00536677 3.35877e-05 0.000744071 -0.00027706 -0.0206353 -0.000359044 0.0114505 0.00013693 
-0.0127021 0.0281756 -1.39382e-07 0.00992711 0.0108237 0.000526455 0.0390508 -0.0135455 -0.000649835 
-0.271794 -0.133684 -0.0593443 -0.111521 0.0956668 0.0773285 -0.182148 -0.0561202 0.0360393 
-0.0409289 -0.00897787 1.84903e-12 -0.0265706 0.00107205 -6.54839e-13 0.000444834 -0.00382383 -9.59429e-11 
0.00728272 -0.000720177 5.39523e-11 -0.0102989 0.00184159 -2.17789e-05 -0.0109766 -0.00194829 6.97369e-05 
0.00750111 -0.0104831 -0.0186116 -0.00231818 0.00118259 -3.93918e-10 -0.00292607 0.0127376 0.000274055 
-0.00741848 0.00247255 0.000177771 0.0227045 -0.0362344 -7.51371e-05 -0.0119805 0.0297262 4.04854e-14 
-0.034435 0.00497686 0.00184362 -0.0266051 -0.00559444 -0.0212326 -0.136838 0.0241897 0.00204212 
-0.0490557 0.00166732 -2.30505e-12 -0.0501448 0.0887717 -2.03993e-07 -0.00323528 0.00191075 0.00264809 
-0.00190556 0.00286092 1.54129e-05 -0.00738296 -0.00485302 0.000103848 -0.00811945 -0.0021358 1.36693e-06 
-0.0100814 0.0103162 0.0037877 0.00726578 -0.086413 -0.0259527 -0.0315742 0.00695419 1.37989e-05 
0.00869799 -0.113245 0.153982 -0.0324945 -0.00803922 8.1065e-05 -0.0236519 -0.0048819 -5.91619e-13 
0.00388067 0.0287652 1.60837e-06 -0.0158336 0.0115151 0.000292419 -0.00501317 -0.0129987 -0.000236206 
-0.00587506 -0.00738986 0.000459045 -0.00548378 1.05471e-05 -1.2193e-05 -0.00800855 0.000990219 1.2662e-06 
-0.0171082 0.00290861 4.10435e-05 -0.0147629 0.000409094 0.001305 -0.00327071 0.0861122 -0.104172 
0.0343564 0.00509713 -0.000500928 -0.00903047 -0.0163907 0.0131558 -0.0108922 0.0158909 -5.96217e-11 
0.00968686 0.0606969 0.046585 0.045712 0.00503475 0.0136642 0.0792167 0.0566354 -5.98551e-10 
0.0644169 0.0813255 -0.0143587 0.0501707 0.0274113 0.00125997 -0.0201539 0.110073 2.69834e-05 
-0.000715891 -0.00750887 -0.00132552 -0.00478411 -0.00478822 0.000564258 0.00239503 0.000152142 0.00370993 
0.0106652 0.000280062 0.000901574 -0.00533745 0.0136307 7.69383e-06 -0.0169082 -0.0202475 -7.1758e-05 
-0.016073 -0.021577 -0.000218037 -0.0384792 0.00910846 -0.00156905 0.0329267 0.0401439 0.0865848 
0.0828285 -0.0235434 -0.0171599 0.016699 0.00766106 -0.0105101 0.117076 -0.099162 -0.0209823 
0.0873205 -0.0107391 0.0475915 0.0508669 -0.0518038 0.00182807 -0.0131249 0.0370267 -3.45891e-11 
0.00788926 -0.019569 -2.79994e-13 0.00297134 0.00737615 -0.000610839 -0.00233743 -0.00194874 5.78747e-05 
0.00140749 -0.0010959 -5.91741e-13 0.00011285 -0.0027043 -5.92288e-08 -0.0172296 0.00732843 -0.0023109 
0.0156573 0.0253385 3.04192e-08 -0.00265685 -0.0218536 -0.0134735 -0.0409275 -0.0300382 -0.0196361 
0.00312476 -0.00621607 -0.00555245 -0.0146718 -0.0317911 3.56539e-13 -0.0489206 -0.0616733 -0.115214 
0.0119732 0.0450968 0.0784111 0.0296353 -0.0497852 -0.00234139 -0.0127336 -0.00981824 -0.000105776 
-0.0123703 0.0137166 0.00437843 0.00324916 0.00157043 -0.032368 0.00368369 0.0358013 -0.00284047 
0.00293573 -0.00791052 -0.00069508 -0.0237223 0.0196456 -0.0164453 -0.0542064 0.0806697 -6.66821e-05 
-0.0732437 -0.023076 1.23777e-06 -0.00602191 -0.00237493 -0.00105876 -0.0114159 0.00175214 -0.000794311 
-0.00694793 -0.00262646 -1.56151e-05 -0.0118532 0.00471024 3.25954e-05 -0.017138 0.00666029 0.000159092 
-0.0106199 0.00116986 0.00573781 -0.00630503 -0.00915395 0.000743011 -0.0280004 -0.0318575 -0.0236252 
-0.011064 -0.0176546 -0.000109036 0.00371863 0.0209897 0.00134034 0.0366623 -0.00399148 9.35889e-06 
0.0235607 -0.00730742 0.0185829 0.0337834 -0.0526191 -2.34023e-08 -0.00242924 0.0890154 -0.00381614 
0.000666899 0.0474686 1.15051e-05 -0.0100109 -0.024426 0.030814 -0.0109756 0.0267355 0.000887084 
-0.0418823 -0.0170705 -0.0254002 -0.117434 0.0311059 0.00559005 -0.037052 -0.0199006 -3.81359e-06 
-0.00980993 -0.00813917 0.00100605 -0.00978336 0.0064103 -0.00116611 0.00354811 0.00768009 0.00298942 
-0.069685 -0.0722363 0.00146719 -0.0534007 -0.0494979 -0.000523547 -0.0349184 0.0108263 -0.000777327 
-0.0304607 -0.0162935 -0.0201004 -0.0569848 -0.00105119 -0.00144671 0.0292795 0.0494843 -0.000988819 
0.0125558 -0.0184518 -9.7878e-05 -0.0646952 0.00164285 -1.73943e-12 -0.0366641 -0.0161868 7.47641e-08 
0.00135329 0.0508158 -0.000312975 -0.0909719 0.0612376 0.0142435 -0.0652274 -0.0483918 5.84745e-09 
0.000411438 -0.023611 -0.000434367 -0.0202534 -0.0282723 -0.000155789 -0.0596952 -0.0253884 0.00141336 
-0.0201922 -0.0593278 -0.00509106 -0.0409278 -0.0711364 -0.0208394 0.00258341 -0.0383385 8.75749e-06 
-0.013206 -0.013387 0.0013549 -0.00356434 0.00740622 0.000329927 -0.010019 -0.0271854 0.000742968 
-0.0045789 -0.0345979 -4.01518e-05 0.0353682 0.0148752 -0.00829636 0.0917073 -0.0579149 -0.0367959 
0.00718484 -0.000133554 2.86205e-05 -0.0991419 0.00467872 -4.10548e-06 -0.115149 -0.0107328 -0.0829447 
-0.0400404 0.0185395 -3.07576e-07 -0.0163814 -0.000810253 -3.68922e-08 -0.0428021 0.0375022 -0.0331508 
-0.0149959 0.0745205 0.000264848 -0.0559492 -0.0126884 0.000295238 -0.00141105 -0.0514593 -0.0574861 
-0.00222416 -0.00526873 0.00036517 -0.0019006 -0.00111402 -6.54834e-13 -0.00166924 0.00941843 -0.0531971 
-0.0576492 -0.0446997 -0.00363758 -0.0547031 -0.0547769 0.000839044 -0.0251854 -0.0630844 -0.00632795 
0.00302583 -0.0292069 0.0136945 -0.0416362 -0.0259507 0.0251512 0.0467291 -0.0541935 0.000315767 
-0.0163567 -0.0249694 -1.8792e-05 0.0327405 0.0272669 1.03696e-13 0.0241156 0.068546 1.25404e-05 
-0.0183224 0.0195463 -0.000167464 -0.045053 0.0531805 0.000265242 -0.0465894 0.0457523 -3.82774e-07 
0.00265138 0.0229236 -0.019694 -0.0248249 -0.0144126 0.000120941 -0.0132972 -0.0033082 0.00736893 
-0.0127938 0.0127239 0.000282805 -0.0379044 -0.0729808 0.020255 -0.0105449 -0.0273354 0.000187374 
-0.032708 -0.0652254 0.00491931 -0.0210733 -0.0435146 4.07628e-11 0.0752489 -0.0415637 0.00105555 
-0.0311528 -0.0198909 -0.000832713 -0.0257656 0.0438952 -5.28414e-13 0.039912 -0.0230234 0.0522022 
0.0285912 0.104368 0.0829844 0.0106185 -0.599623 0.0537989 0.0313554 -0.0211003 -0.0011483 
0.0179885 -0.0150422 0.000166145 0.0127465 -0.0391258 0.000101538 0.0147229 -0.0296673 0.0123724 
-0.000653838 -0.0019171 0.00028578 -0.000771964 -0.000124174 0.00302779 0.00114961 0.0179716 0.00285803 
-0.0259387 -0.0203724 -0.00364581 -0.0426852 -0.0506442 -0.0124844 -0.00395091 -0.0189893 -0.00040396 
-0.00399024 -0.0344429 0.00351715 -0.0283191 -0.0440163 0.000833292 0.0163009 -0.0145471 0.0489498 
0.00194172 0.00915689 0.0115349 0.0540899 -0.051339 0.0041817 0.00714516 -0.0479806 -0.0308352 
-0.012689 -0.0167314 0.000160014 -0.0651552 -0.089338 -0.00143627 -0.0217922 -0.0414437 0.00486595 
-0.0142663 -0.0747243 -0.00123647 -0.00139395 -0.0185768 0.055467 0.0336707 0.0448022 -0.000145758 
0.00836189 -0.00657572 -6.54183e-13 0.000512826 -0.0261533 -2.22966e-07 -0.0111131 -0.00243806 -0.000167358 
-0.000945406 -0.0120956 -0.00208752 -0.0142631 -0.0362518 -0.00625253 -0.0155676 -0.0346553 0.032503 
0.0170059 -0.0469434 -0.0039087 -0.0315635 -0.0210959 0.013908 -0.0526623 0.0813584 -0.0227258 
-0.00209045 -0.038252 1.30055e-10 0.0332653 0.0457351 -1.39634e-09 0.0443785 0.012866 0.00470479 
0.0229551 -0.0928622 -0.0216171 -0.111612 -0.0417011 0.0283584 -0.00152604 -0.00435818 1.29404e-10 
-1.56198e-05 -0.0222242 -1.02065e-10 -0.00119615 -0.00548022 -0.000127835 -0.0118082 -0.00443338 -0.00119322 
-0.00932028 -0.0121265 -0.000126931 -0.00535122 -0.00470154 0.000836383 -0.0276857 0.0157631 -5.86215e-05 
-0.0342264 0.000121096 2.08097e-06 0.0028569 -0.00350261 -2.75367e-13 0.0153812 -0.0475892 0.0325639 
0.0010556 -0.00103766 1.03722e-13 0.00754434 0.0324612 3.15363e-07 0.0235758 -0.0454775 0.000449398 
-0.0818905 0.095611 0.0285646 -0.0331879 -0.0649421 0.00129041 0.0300666 0.0282747 -0.141442 
-0.0111707 -0.016156 3.49753e-09 -0.00612874 -0.0108071 1.61787e-10 0.000717769 -0.0208125 0.00304403 
-0.0244917 -0.0510903 -0.0203618 0.00808246 -0.0401831 -0.0122509 -0.00949068 -0.00245345 -0.000711898 
-0.000212521 0.0137396 0.00989209 -0.0466693 0.0167456 2.93328e-13 0.165822 0.0380011 -0.0775822 
0.130418 0.059038 0.129498 0.126219 0.169893 -6.74778e-10 0.141176 0.149859 0.071734 
-0.0367524 0.0755465 9.21788e-10 -0.0256636 -0.0166159 5.8198e-06 0.115788 0.0639037 0.0861587 
-0.00452222 0.00632436 0.000322482 0.00141516 -0.00332549 0.000157288 0.00442922 -0.00690187 -0.000327502 
0.00704823 0.0019609 -0.00040252 0.0597928 -0.0138305 4.6918e-08 0.056102 0.078676 -3.92394e-06 