# vtk DataFile Version 4.0
Generated by LIGGGHTS
ASCII
DATASET POLYDATA
POINTS 717 float
-0.0132901 -0.0478453 0.0811445 -0.00839181 -0.0489594 0.08112 -0.00534113 -0.0491656 0.0811337 
-0.00118126 -0.0486596 0.0821183 0.00492623 -0.0486284 0.0811057 0.00975647 -0.0486797 0.0811201 
-0.0217478 -0.0445273 0.0811205 -0.0157481 -0.0459883 0.0811205 -0.0126684 -0.0438781 0.0811205 
-0.0105737 -0.0460243 0.0811198 -0.00378641 -0.0456479 0.0811205 0.00777288 -0.0453307 0.0821175 
0.0123928 -0.0472499 0.0811233 0.0153925 -0.0471761 0.0811195 0.0184452 -0.045998 0.0811207 
0.0230489 -0.0440524 0.0811182 -0.0248907 -0.0429935 0.0811203 -0.0152516 -0.0423403 0.0811204 
-0.0128397 -0.0403721 0.0811203 -0.00967711 -0.0416694 0.0811179 -0.00673848 -0.043182 0.0811199 
-0.00142168 -0.0431542 0.0811205 0.0175537 -0.0428771 0.0811205 0.020525 -0.0424063 0.0811205 
0.0257295 -0.041259 0.0821179 -0.0321556 -0.0378105 0.0811548 -0.0275934 -0.0383937 0.0811197 
-0.0250737 -0.040012 0.0811128 -0.0212194 -0.0406387 0.0821184 -0.0157044 -0.0379563 0.0811205 
-0.00218843 -0.0397018 0.0811205 0.000446525 -0.038025 0.0811205 0.0142004 -0.0381864 0.0817832 
0.0164695 -0.0400648 0.0811206 0.0190394 -0.0385148 0.0811251 0.0222636 -0.0393838 0.0811205 
0.0247286 -0.0375082 0.0811185 0.0278459 -0.037954 0.0811205 0.0315866 -0.0368208 0.0821177 
-0.0344441 -0.034347 0.0821211 -0.0293721 -0.0349425 0.0821184 -0.0121409 -0.0364952 0.0811224 
-0.00715481 -0.0359913 0.081128 -0.00332513 -0.0345294 0.0821459 0.0170463 -0.0362541 0.0811205 
0.0171658 -0.0329515 0.0810904 0.0268001 -0.0340359 0.0821172 0.0361507 -0.0339006 0.0811214 
-0.0377159 -0.0322419 0.0811201 -0.0317695 -0.029807 0.0821182 -0.026175 -0.0310756 0.0824632 
-0.0226366 -0.0337937 0.0827434 -0.00956314 -0.0335321 0.0814056 -0.000245889 -0.0301643 0.0821183 
0.0119528 -0.0303588 0.0812425 0.020131 -0.0323792 0.0810759 0.0239769 -0.0299202 0.0821205 
0.0332275 -0.0329983 0.0811205 0.0376282 -0.0302642 0.0821187 -0.0370042 -0.0291947 0.0811264 
-0.0290869 -0.0270188 0.0811206 -0.0169799 -0.0294149 0.0811205 -0.0147755 -0.0262505 0.0811205 
-0.00853093 -0.0271884 0.0811205 0.00682593 -0.0284476 0.0821278 0.0298848 -0.0299594 0.0811205 
0.0339658 -0.0290236 0.0811426 0.0379897 -0.0263914 0.0811205 0.0417609 -0.0269701 0.0811205 
-0.0411588 -0.0231224 0.0811201 -0.0402377 -0.0259745 0.0811194 -0.032386 -0.0257808 0.0811205 
-0.0258191 -0.0259578 0.0833389 -0.0197491 -0.0239395 0.0821159 -0.0114146 -0.0243083 0.0811207 
-0.00418361 -0.0238427 0.0811205 0.0110708 -0.0257758 0.0821185 0.0158246 -0.0253341 0.0811204 
0.0227762 -0.0242317 0.0821454 0.0325705 -0.0251865 0.0822271 0.0431817 -0.0243048 0.0811201 
-0.0365785 -0.0202225 0.0825868 -0.0259787 -0.0217355 0.0821182 -0.0195814 -0.0196635 0.0811205 
-0.0154777 -0.0210974 0.0821183 -0.00932414 -0.0229419 0.0829503 -0.00518873 -0.0209652 0.0811205 
0.00612913 -0.0210496 0.0821183 0.00992444 -0.0219383 0.0811205 0.0140356 -0.0217026 0.0821193 
0.0178139 -0.0229259 0.0811191 0.0317791 -0.0200865 0.0821183 0.0370384 -0.0221366 0.0821168 
0.0427149 -0.0213431 0.0811204 0.045569 -0.0196768 0.0811205 -0.0457758 -0.0191962 0.0811195 
-0.0416214 -0.0192809 0.0821191 -0.0371251 -0.0171847 0.0811608 -0.0283341 -0.0167003 0.0811205 
-0.0211594 -0.0169841 0.0811205 -0.0139881 -0.0172336 0.0811205 -0.0101116 -0.0175204 0.0811544 
-0.00373489 -0.0182357 0.0811205 0.0105612 -0.0165223 0.0813693 0.0168454 -0.0190065 0.0811246 
0.0202946 -0.0212361 0.0811407 0.0347103 -0.01734 0.0811203 0.0373143 -0.0159298 0.0815957 
0.0404716 -0.0185211 0.0811205 -0.0460427 -0.0153294 0.0821124 -0.039091 -0.0149275 0.0830734 
-0.0343334 -0.0157408 0.0811205 -0.026766 -0.0138778 0.0811189 -0.023764 -0.0138933 0.0811321 
-0.0151993 -0.0139053 0.0811205 -0.00917497 -0.0146627 0.0811202 0.0041885 -0.01367 0.0811205 
0.00715867 -0.0142584 0.0811175 0.0108292 -0.0126025 0.0823768 0.0185375 -0.0145458 0.0821518 
0.0227475 -0.0134792 0.0811205 0.0243728 -0.0161214 0.0811159 0.0399244 -0.0145304 0.0811204 
0.0434939 -0.0160679 0.0821183 0.0474371 -0.0144119 0.0811205 -0.0475059 -0.0101637 0.0821183 
-0.0420881 -0.0121433 0.0823727 -0.0365847 -0.0113806 0.0811205 -0.0296405 -0.0112911 0.082132 
-0.0257437 -0.0105907 0.0811203 -0.0201395 -0.0101089 0.0811581 -0.0174483 -0.0114263 0.0811181 
-0.0137869 -0.0101911 0.0821371 -0.00721865 -0.0104588 0.0821168 0.000546679 -0.0101256 0.0811205 
0.0063148 -0.0100384 0.0821173 0.014356 -0.00912915 0.0811205 0.0208238 -0.0108842 0.0811164 
0.0284954 -0.0109465 0.0821183 0.0324095 -0.0111988 0.0811205 0.0353974 -0.0107393 0.0811205 
0.040852 -0.011648 0.0811205 0.0446592 -0.0121431 0.0811195 0.0484734 -0.0107804 0.0811205 
-0.0492983 -0.00638003 0.0811205 -0.0446374 -0.00744339 0.0811205 -0.0395036 -0.00778033 0.0832459 
-0.0294282 -0.0074366 0.0811053 -0.0248874 -0.00577949 0.0811201 -0.0226117 -0.00841644 0.0811194 
-0.0167604 -0.00641218 0.0811205 -0.00824155 -0.00561248 0.0813526 0.0250466 -0.00663379 0.0821285 
0.0288994 -0.00657325 0.0811077 0.035364 -0.00715337 0.0811124 0.039543 -0.00857505 0.0811205 
0.0447422 -0.00839886 0.0828524 0.0490277 -0.00781958 0.0811205 -0.0487896 -0.00337917 0.0811205 
-0.0436583 -0.00356552 0.0821179 -0.0388931 -0.00368959 0.0811793 -0.0359796 -0.00390009 0.0829263 
-0.0333777 -0.00164726 0.0811343 -0.0313354 -0.00512465 0.0811197 -0.0276997 -0.00472321 0.0811219 
-0.0251558 -0.00215022 0.0811205 -0.0210881 -0.00484404 0.0821208 -0.0170628 -0.00189857 0.0823244 
-0.0138737 -0.00438965 0.08112 -0.0105099 -0.00340662 0.0816344 0.0323256 -0.00479817 0.0811205 
0.0382075 -0.00586475 0.0818459 0.0457719 -0.00312421 0.0827793 0.0493905 -0.00482048 0.0811205 
-0.0447601 0.000158351 0.0811198 -0.0416221 0.000528581 0.0811201 -0.0372294 0.000379787 0.0829639 
-0.0294749 -0.00127112 0.0821095 -0.0259136 0.000864474 0.081248 -0.00684705 -0.00181435 0.082117 
0.00234365 0.000297178 0.0811205 0.0116825 -0.000871215 0.0821892 0.0212222 0.00149685 0.0822026 
0.0260077 -0.00105756 0.0821183 0.0398561 0.000481381 0.0811205 0.0469973 0.00173606 0.082118 
0.0495365 -0.00123654 0.0811626 -0.0494799 0.00388036 0.0811205 -0.0471308 0.00201262 0.0811205 
-0.0455561 0.00457598 0.0811162 -0.0421792 0.00485847 0.0811192 -0.0395675 0.0033769 0.0811447 
-0.0366193 0.00394059 0.0811202 -0.0325044 0.00270198 0.0821174 -0.0286223 0.00397717 0.0818806 
-0.0254964 0.00413468 0.0811506 -0.0116048 0.00309338 0.0821182 -0.00637484 0.00385932 0.0811205 
-0.00107879 0.00318526 0.0811174 0.00160535 0.00449841 0.0812322 0.00752401 0.00371597 0.0826435 
0.0140364 0.00243676 0.0813421 0.0163625 0.00657153 0.0812271 0.0312202 0.0035584 0.0821184 
0.0351142 0.003572 0.0811205 0.0380821 0.00413423 0.0811205 0.042782 0.00443042 0.0821183 
-0.0480564 0.00752646 0.0821182 -0.0372253 0.00691114 0.0811206 -0.0226409 0.00525552 0.0811205 
-0.0197266 0.00648299 0.0811206 -0.0221231 0.00844159 0.0811205 -0.0163702 0.00670839 0.0811158 
-0.00666781 0.00708904 0.0811205 -0.00200418 0.00736702 0.0821173 0.00375948 0.00700648 0.0813812 
0.0108978 0.00525811 0.0811205 0.0133571 0.00741776 0.0811205 0.0353596 0.0076339 0.0821645 
0.0392752 0.00725786 0.0811218 0.0481785 0.00659672 0.0821182 -0.0421834 0.0115495 0.0811208 
-0.0382111 0.011119 0.0821182 -0.0337933 0.00873372 0.0821184 -0.0275808 0.0114788 0.0821183 
-0.0236853 0.0116884 0.0811205 -0.0206165 0.0125425 0.0811786 -0.0149463 0.0112113 0.0811205 
-0.0110117 0.0113495 0.0811222 -0.00833575 0.00987465 0.0811206 0.013052 0.0105157 0.08112 
0.0224097 0.0126874 0.0811205 0.0266703 0.0115586 0.0822265 0.0322114 0.0123537 0.0811503 
0.0426036 0.00996498 0.0821183 -0.045499 0.0136535 0.0821184 -0.0321873 0.0137778 0.0811028 
-0.017694 0.0131336 0.0811244 -0.0138403 0.0140043 0.0811561 0.00582391 0.0146439 0.0821182 
0.00928783 0.0123645 0.0812723 0.0172281 0.0128163 0.0821183 0.0202335 0.0154726 0.0811205 
0.0362078 0.013789 0.0812478 0.0451482 0.0144912 0.0821174 -0.0462599 0.0180986 0.0811189 
-0.0421805 0.0173972 0.0821162 -0.0373564 0.0160623 0.082118 -0.0325629 0.0168465 0.0810601 
-0.0218153 0.0177272 0.0821201 -0.0157983 0.0175452 0.0821181 0.0218612 0.018471 0.0811205 
0.0239262 0.0162524 0.0811205 0.0332756 0.0173024 0.0821183 0.0378362 0.0196988 0.0816617 
0.0461297 0.0182932 0.0812121 -0.0392943 0.0211155 0.0811196 -0.0350456 0.0205725 0.0822698 
-0.0274727 0.0203664 0.0811205 -0.0262209 0.0231315 0.0811205 0.00677568 0.0224494 0.0811205 
0.0125301 0.0203988 0.0821328 0.0187268 0.0213455 0.0820414 0.0266936 0.0237578 0.0821822 
0.0402203 0.0214306 0.0811151 0.0434421 0.0196674 0.0811205 0.0441823 0.0226503 0.0811215 
-0.0426915 0.0234279 0.0821178 -0.0378617 0.0247174 0.0821181 -0.0329789 0.0259018 0.0821183 
-0.0208357 0.0250029 0.0821178 -0.00514151 0.0209834 0.0812001 0.011154 0.0235635 0.0820732 
0.0167012 0.0255061 0.0821183 0.0211053 0.0236401 0.0811185 0.0336717 0.0255651 0.0821183 
-0.0385525 0.0296742 0.0821183 -0.029121 0.0270091 0.0811154 -0.027244 0.0293906 0.0811205 
-0.0213976 0.030317 0.0811202 -0.0181347 0.0278644 0.0811966 -0.015902 0.0256725 0.0811546 
-0.0127512 0.0265755 0.0811205 0.00196369 0.0272478 0.0821184 0.0118578 0.0278082 0.0821184 
0.0211221 0.0266517 0.0811205 0.0240868 0.0274036 0.0811205 0.0411302 0.0276089 0.0811205 
-0.0369173 0.0331886 0.0811205 -0.0344468 0.0298178 0.0811205 -0.0329728 0.0324933 0.0811193 
-0.0243988 0.0303548 0.0811201 -0.00107789 0.032109 0.0821114 0.00428259 0.0316646 0.082119 
0.012588 0.0327443 0.0811205 0.0165183 0.0328578 0.0821183 0.0203469 0.0306063 0.0811205 
0.0226942 0.0326447 0.0811205 0.0257036 0.0324678 0.0811205 0.0290899 0.0317843 0.0811205 
0.032867 0.0305972 0.0821039 0.036853 0.0332806 0.0811205 -0.0347026 0.035508 0.0812156 
-0.0277685 0.0333257 0.0821182 -0.0241526 0.0369327 0.0811205 -0.00902508 0.0355049 0.0812382 
0.00149561 0.0350379 0.0811134 0.0114979 0.0364661 0.0821183 0.0217028 0.0360643 0.0811205 
0.0258016 0.0356171 0.0811156 0.0310097 0.0340901 0.0811216 0.0343764 0.0357514 0.0811149 
[...]
POINT_DATA 717
FIELD FieldData 7
id 1 717 int
290 32 287 171 90 240 6 262 199 
96 166 211 46 95 18 98 76 250 
77 249 59 70 394 19 272 178 239 
431 119 137 24 366 293 87 375 33 
50 444 92 94 2 204 407 220 45 
364 258 238 173 222 310 280 252 182 
549 426 359 51 184 278 338 273 429 
421 296 256 167 110 63 108 428 164 
562 412 13 100 345 354 43 498 187 
263 259 161 260 408 480 384 35 234 
495 157 221 179 86 48 132 191 352 
304 337 101 318 237 180 353 11 74 
217 144 330 202 279 329 517 138 416 
291 195 332 229 186 69 67 128 185 
134 88 4 218 264 193 197 53 276 
319 44 114 66 493 377 255 102 10 
154 168 236 115 331 351 38 275 459 
324 312 174 372 265 58 183 356 545 
532 85 194 369 271 333 469 336 203 
494 334 192 148 116 233 385 64 323 
367 172 156 91 315 130 288 149 253 
124 325 89 381 120 519 451 247 162 
9 502 437 230 409 104 350 241 145 
105 306 62 22 141 125 175 93 311 
111 206 257 201 143 268 107 308 447 
405 455 465 481 242 432 313 14 518 
42 65 83 26 82 3 97 321 155 
227 248 61 235 210 225 501 159 326 
122 448 420 302 57 5 441 20 389 
555 181 219 393 267 327 29 1 121 
270 534 446 298 231 245 41 25 8 
292 127 483 317 347 309 439 205 140 
135 47 34 376 488 106 99 40 23 
60 136 200 78 129 152 232 214 443 
150 196 344 73 72 103 244 133 285 
71 27 147 37 75 177 118 131 215 
461 52 254 340 112 81 7 142 391 
458 170 212 445 109 56 16 414 163 
190 226 123 243 251 31 299 479 39 
358 189 390 12 303 213 396 342 515 
423 153 457 208 79 21 305 316 371 
398 277 526 497 541 406 383 84 266 
158 449 286 297 478 274 433 216 496 
30 489 17 294 314 36 54 557 476 
454 357 355 363 349 556 507 169 387 
485 395 289 139 160 368 403 295 472 
379 490 261 365 561 146 560 550 425 
343 209 322 402 55 430 15 49 224 
382 509 397 503 301 467 126 453 223 
399 339 466 341 470 513 413 516 373 
500 284 508 348 436 533 361 410 411 
68 404 442 176 117 246 419 536 282 
424 427 559 380 198 499 328 335 307 
281 269 547 113 207 283 553 542 531 
165 544 548 554 422 468 80 346 438 
568 386 400 188 529 374 552 360 151 
528 505 546 567 521 28 435 475 537 
551 543 558 434 370 487 530 571 378 
484 388 474 452 320 228 362 300 486 
539 491 463 535 418 538 563 540 512 
456 574 524 460 415 482 523 511 565 
564 510 492 392 506 520 514 573 417 
569 464 527 525 477 504 440 570 462 
583 522 450 471 572 575 473 566 586 
582 580 577 581 578 576 587 585 579 
584 599 596 593 401 590 595 597 600 
594 598 588 592 589 608 591 613 603 
606 612 607 604 610 611 605 602 609 
601 619 620 617 625 614 624 618 622 
621 623 626 632 615 633 616 635 636 
637 627 639 631 634 628 629 638 630 
652 641 649 643 651 645 648 650 647 
646 640 642 658 644 665 655 663 660 
659 656 654 661 662 657 653 664 667 
669 678 673 668 675 672 670 674 682 
677 671 666 676 684 685 690 681 680 
687 683 686 679 688 699 691 701 689 
702 695 697 694 704 693 692 698 696 
700 708 713 703 709 706 710 707 711 
714 717 716 715 712 705 
type 1 717 int
1 1 1 1 1 1 1 1 1 
1 1 1 1 1 1 1 1 1 
1 1 1 1 1 1 1 1 1 
1 1 1 1 1 1 1 1 1 
1 1 1 1 1 1 1 1 1 
1 1 1 1 1 1 1 1 1 
1 1 1 1 1 1 1 1 1 
1 1 1 1 1 1 1 1 1 
1 1 1 1 1 1 1 1 1 
1 1 1 1 1 1 1 1 1 
1 1 1 1 1 1 1 1 1 
1 1 1 1 1 1 1 1 1 
1 1 1 1 1 1 1 1 1 
1 1 1 1 1 1 1 1 1 
1 1 1 1 1 1 1 1 1 
1 1 1 1 1 1 1 1 1 
1 1 1 1 1 1 1 1 1 
1 1 1 1 1 1 1 1 1 
1 1 1 1 1 1 1 1 1 
1 1 1 1 1 1 1 1 1 
1 1 1 1 1 1 1 1 1 
1 1 1 1 1 1 1 1 1 
1 1 1 1 1 1 1 1 1 
1 1 1 1 1 1 1 1 1 
1 1 1 1 1 1 1 1 1 
1 1 1 1 1 1 1 1 1 
1 1 1 1 1 1 1 1 1 
1 1 1 1 1 1 1 1 1 
1 1 1 1 1 1 1 1 1 
1 1 1 1 1 1 1 1 1 
1 1 1 1 1 1 1 1 1 
1 1 1 1 1 1 1 1 1 
1 1 1 1 1 1 1 1 1 
1 1 1 1 1 1 1 1 1 
1 1 1 1 1 1 1 1 1 
1 1 1 1 1 1 1 1 1 
1 1 1 1 1 1 1 1 1 
1 1 1 1 1 1 1 1 1 
1 1 1 1 1 1 1 1 1 
1 1 1 1 1 1 1 1 1 
1 1 1 1 1 1 1 1 1 
1 1 1 1 1 1 1 1 1 
1 1 1 1 1 1 1 1 1 
1 1 1 1 1 1 1 1 1 
1 1 1 1 1 1 1 1 1 
1 1 1 1 1 1 1 1 1 
1 1 1 1 1 1 1 1 1 
1 1 1 1 1 1 1 1 1 
1 1 1 1 1 1 1 1 1 
1 1 1 1 1 1 1 1 1 
1 1 1 1 1 1 1 1 1 
1 1 1 1 1 1 1 1 1 
1 1 1 1 1 1 1 1 1 
1 1 1 1 1 1 1 1 1 
1 1 1 1 1 1 1 1 1 
1 1 1 1 1 1 1 1 1 
1 1 1 1 1 1 1 1 1 
1 1 1 1 1 1 1 1 1 
1 1 1 1 1 1 1 1 1 
1 1 1 1 1 1 1 1 1 
1 1 1 1 1 1 1 1 1 
1 1 1 1 1 1 1 1 1 
1 1 1 1 1 1 1 1 1 
1 1 1 1 1 1 1 1 1 
1 1 1 1 1 1 1 1 1 
1 1 1 1 1 1 1 1 1 
1 1 1 1 1 1 1 1 1 
1 1 1 1 1 1 1 1 1 
1 1 1 1 1 1 1 1 1 
1 1 1 1 1 1 1 1 1 
1 1 1 1 1 1 1 1 1 
1 1 1 1 1 1 1 1 1 
1 1 1 1 1 1 1 1 1 
1 1 1 1 1 1 1 1 1 
1 1 1 1 1 1 1 1 1 
1 1 1 1 1 1 1 1 1 
1 1 1 1 1 1 1 1 1 
1 1 1 1 1 1 1 1 1 
1 1 1 1 1 1 1 1 1 
1 1 1 1 1 1 
i 3 717 int
0 0 0 0 0 0 0 0 0 
0 0 0 0 0 0 0 0 0 
0 0 0 0 0 0 0 0 0 
0 0 0 0 0 0 0 0 0 
0 0 0 0 0 0 0 0 0 
0 0 0 0 0 0 0 0 0 
0 0 0 0 0 0 0 0 0 
0 0 0 0 0 0 0 0 0 
0 0 0 0 0 0 0 0 0 
0 0 0 0 0 0 0 0 0 
0 0 0 0 0 0 0 0 0 
0 0 0 0 0 0 0 0 0 
0 0 0 0 0 0 0 0 0 
0 0 0 0 0 0 0 0 0 
0 0 0 0 0 0 0 0 0 
0 0 0 0 0 0 0 0 0 
0 0 0 0 0 0 0 0 0 
0 0 0 0 0 0 0 0 0 
0 0 0 0 0 0 0 0 0 
0 0 0 0 0 0 0 0 0 
0 0 0 0 0 0 0 0 0 
0 0 0 0 0 0 0 0 0 
0 0 0 0 0 0 0 0 0 
0 0 0 0 0 0 0 0 0 
0 0 0 0 0 0 0 0 0 
0 0 0 0 0 0 0 0 0 
0 0 0 0 0 0 0 0 0 
0 0 0 0 0 0 0 0 0 
0 0 0 0 0 0 0 0 0 
0 0 0 0 0 0 0 0 0 
0 0 0 0 0 0 0 0 0 
0 0 0 0 0 0 0 0 0 
0 0 0 0 0 0 0 0 0 
0 0 0 0 0 0 0 0 0 
0 0 0 0 0 0 0 0 0 
0 0 0 0 0 0 0 0 0 
0 0 0 0 0 0 0 0 0 
0 0 0 0 0 0 0 0 0 
0 0 0 0 0 0 0 0 0 
0 0 0 0 0 0 0 0 0 
0 0 0 0 0 0 0 0 0 
0 0 0 0 0 0 0 0 0 
0 0 0 0 0 0 0 0 0 
0 0 0 0 0 0 0 0 0 
0 0 0 0 0 0 0 0 0 
0 0 0 0 0 0 0 0 0 
0 0 0 0 0 0 0 0 0 
0 0 0 0 0 0 0 0 0 
0 0 0 0 0 0 0 0 0 
0 0 0 0 0 0 0 0 0 
0 0 0 0 0 0 0 0 0 
0 0 0 0 0 0 0 0 0 
0 0 0 0 0 0 0 0 0 
0 0 0 0 0 0 0 0 0 
0 0 0 0 0 0 0 0 0 
0 0 0 0 0 0 0 0 0 
0 0 0 0 0 0 0 0 0 
0 0 0 0 0 0 0 0 0 
0 0 0 0 0 0 0 0 0 
0 0 0 0 0 0 0 0 0 
0 0 0 0 0 0 0 0 0 
0 0 0 0 0 0 0 0 0 
0 0 0 0 0 0 0 0 0 
0 0 0 0 0 0 0 0 0 
0 0 0 0 0 0 0 0 0 
0 0 0 0 0 0 0 0 0 
0 0 0 0 0 0 0 0 0 
0 0 0 0 0 0 0 0 0 
0 0 0 0 0 0 0 0 0 
0 0 0 0 0 0 0 0 0 
0 0 0 0 0 0 0 0 0 
0 0 0 0 0 0 0 0 0 
0 0 0 0 0 0 0 0 0 
0 0 0 0 0 0 0 0 0 
0 0 0 0 0 0 0 0 0 
0 0 0 0 0 0 0 0 0 
0 0 0 0 0 0 0 0 0 
0 0 0 0 0 0 0 0 0 
0 0 0 0 0 0 0 0 0 
0 0 0 0 0 0 0 0 0 
0 0 0 0 0 0 0 0 0 
0 0 0 0 0 0 0 0 0 
0 0 0 0 0 0 0 0 0 
0 0 0 0 0 0 0 0 0 
0 0 0 0 0 0 0 0 0 
0 0 0 0 0 0 0 0 0 
0 0 0 0 0 0 0 0 0 
0 0 0 0 0 0 0 0 0 
0 0 0 0 0 0 0 0 0 
0 0 0 0 0 0 0 0 0 
0 0 0 0 0 0 0 0 0 
0 0 0 0 0 0 0 0 0 
0 0 0 0 0 0 0 0 0 
0 0 0 0 0 0 0 0 0 
0 0 0 0 0 0 0 0 0 
0 0 0 0 0 0 0 0 0 
0 0 0 0 0 0 0 0 0 
0 0 0 0 0 0 0 0 0 
0 0 0 0 0 0 0 0 0 
0 0 0 0 0 0 0 0 0 
0 0 0 0 0 0 0 0 0 
0 0 0 0 0 0 0 0 0 
0 0 0 0 0 0 0 0 0 
0 0 0 0 0 0 0 0 0 
0 0 0 0 0 0 0 0 0 
0 0 0 0 0 0 0 0 0 
0 0 0 0 0 0 0 0 0 
0 0 0 0 0 0 0 0 0 
0 0 0 0 0 0 0 0 0 
0 0 0 0 0 0 0 0 0 
0 0 0 0 0 0 0 0 0 
0 0 0 0 0 0 0 0 0 
0 0 0 0 0 0 0 0 0 
0 0 0 0 0 0 0 0 0 
0 0 0 0 0 0 0 0 0 
0 0 0 0 0 0 0 0 0 
0 0 0 0 0 0 0 0 0 
0 0 0 0 0 0 0 0 0 
0 0 0 0 0 0 0 0 0 
0 0 0 0 0 0 0 0 0 
0 0 0 0 0 0 0 0 0 
0 0 0 0 0 0 0 0 0 
0 0 0 0 0 0 0 0 0 
0 0 0 0 0 0 0 0 0 
0 0 0 0 0 0 0 0 0 
0 0 0 0 0 0 0 0 0 
0 0 0 0 0 0 0 0 0 
0 0 0 0 0 0 0 0 0 
0 0 0 0 0 0 0 0 0 
0 0 0 0 0 0 0 0 0 
0 0 0 0 0 0 0 0 0 
0 0 0 0 0 0 0 0 0 
0 0 0 0 0 0 0 0 0 
0 0 0 0 0 0 0 0 0 
0 0 0 0 0 0 0 0 0 
0 0 0 0 0 0 0 0 0 
0 0 0 0 0 0 0 0 0 
0 0 0 0 0 0 0 0 0 
0 0 0 0 0 0 0 0 0 
0 0 0 0 0 0 0 0 0 
0 0 0 0 0 0 0 0 0 
0 0 0 0 0 0 0 0 0 
0 0 0 0 0 0 0 0 0 
0 0 0 0 0 0 0 0 0 
0 0 0 0 0 0 0 0 0 
0 0 0 0 0 0 0 0 0 
0 0 0 0 0 0 0 0 0 
0 0 0 0 0 0 0 0 0 
0 0 0 0 0 0 0 0 0 
0 0 0 0 0 0 0 0 0 
0 0 0 0 0 0 0 0 0 
0 0 0 0 0 0 0 0 0 
0 0 0 0 0 0 0 0 0 
0 0 0 0 0 0 0 0 0 
0 0 0 0 0 0 0 0 0 
0 0 0 0 0 0 0 0 0 
0 0 0 0 0 0 0 0 0 
0 0 0 0 0 0 0 0 0 
0 0 0 0 0 0 0 0 0 
0 0 0 0 0 0 0 0 0 
0 0 0 0 0 0 0 0 0 
0 0 0 0 0 0 0 0 0 
0 0 0 0 0 0 0 0 0 
0 0 0 0 0 0 0 0 0 
0 0 0 0 0 0 0 0 0 
0 0 0 0 0 0 0 0 0 
0 0 0 0 0 0 0 0 0 
0 0 0 0 0 0 0 0 0 
0 0 0 0 0 0 0 0 0 
0 0 0 0 0 0 0 0 0 
0 0 0 0 0 0 0 0 0 
0 0 0 0 0 0 0 0 0 
0 0 0 0 0 0 0 0 0 
0 0 0 0 0 0 0 0 0 
0 0 0 0 0 0 0 0 0 
0 0 0 0 0 0 0 0 0 
0 0 0 0 0 0 0 0 0 
0 0 0 0 0 0 0 0 0 
0 0 0 0 0 0 0 0 0 
0 0 0 0 0 0 0 0 0 
0 0 0 0 0 0 0 0 0 
0 0 0 0 0 0 0 0 0 
0 0 0 0 0 0 0 0 0 
0 0 0 0 0 0 0 0 0 
0 0 0 0 0 0 0 0 0 
0 0 0 0 0 0 0 0 0 
0 0 0 0 0 0 0 0 0 
0 0 0 0 0 0 0 0 0 
0 0 0 0 0 0 0 0 0 
0 0 0 0 0 0 0 0 0 
0 0 0 0 0 0 0 0 0 
0 0 0 0 0 0 0 0 0 
0 0 0 0 0 0 0 0 0 
0 0 0 0 0 0 0 0 0 
0 0 0 0 0 0 0 0 0 
0 0 0 0 0 0 0 0 0 
0 0 0 0 0 0 0 0 0 
0 0 0 0 0 0 0 0 0 
0 0 0 0 0 0 0 0 0 
0 0 0 0 0 0 0 0 0 
0 0 0 0 0 0 0 0 0 
0 0 0 0 0 0 0 0 0 
0 0 0 0 0 0 0 0 0 
0 0 0 0 0 0 0 0 0 
0 0 0 0 0 0 0 0 0 
0 0 0 0 0 0 0 0 0 
0 0 0 0 0 0 0 0 0 
0 0 0 0 0 0 0 0 0 
0 0 0 0 0 0 0 0 0 
0 0 0 0 0 0 0 0 0 
0 0 0 0 0 0 0 0 0 
0 0 0 0 0 0 0 0 0 
0 0 0 0 0 0 0 0 0 
0 0 0 0 0 0 0 0 0 
0 0 0 0 0 0 0 0 0 
0 0 0 0 0 0 0 0 0 
0 0 0 0 0 0 0 0 0 
0 0 0 0 0 0 0 0 0 
0 0 0 0 0 0 0 0 0 
0 0 0 0 0 0 0 0 0 
0 0 0 0 0 0 0 0 0 
0 0 0 0 0 0 0 0 0 
0 0 0 0 0 0 0 0 0 
0 0 0 0 0 0 0 0 0 
0 0 0 0 0 0 0 0 0 
0 0 0 0 0 0 0 0 0 
0 0 0 0 0 0 0 0 0 
0 0 0 0 0 0 0 0 0 
0 0 0 0 0 0 0 0 0 
0 0 0 0 0 0 0 0 0 
0 0 0 0 0 0 0 0 0 
0 0 0 0 0 0 0 0 0 
0 0 0 0 0 0 0 0 0 
0 0 0 0 0 0 0 0 0 
0 0 0 0 0 0 0 0 0 
0 0 0 0 0 0 0 0 0 
0 0 0 0 0 0 0 0 0 
0 0 0 0 0 0 0 0 0 
0 0 0 0 0 0 0 0 0 

v 3 717 double
-0.0185554 -0.0170509 0.0155047 0.000571496 0.00182432 -0.000981605 0.0125445 0.00551213 0.0331439 
0.0269327 0.00176621 1.38777e-08 0.0161932 0.0120216 0.0518634 -0.0147806 0.00188629 0.00379252 
0.0142727 -0.00076201 3.34946e-08 0.00830108 0.0128374 9.53536e-14 0.00362572 0.0083151 -0.00104185 
0.00435606 0.00956342 4.17492e-05 0.0164901 0.00262093 -1.57092e-09 0.0129078 0.0262675 0.00282234 
-0.0243226 0.0161723 -0.0042764 -0.0281693 -0.00567475 0.00180793 -0.0054081 0.00127159 -7.96949e-05 
0.00246818 0.000226174 0.000991173 0.00936453 -0.0227049 -0.0114669 -0.0155684 -0.0162643 0.00046483 
-0.0112194 0.0170201 -0.00224199 0.0235678 0.0510474 -0.00125766 -0.023277 0.00939363 -0.000539462 
0.015102 -0.0329488 -3.83142e-12 -0.000549125 -0.00301698 7.83585e-05 0.00292419 -0.00219524 1.44572e-05 
-0.000213701 0.00210097 -0.000289365 -0.00702892 0.0178493 0.000412147 -0.0375332 -0.00772103 -0.00221704 
-0.064003 -0.0520569 -0.0240466 -0.0234125 -0.0651605 0.000146511 -0.0119805 0.0297262 4.04854e-14 
0.0618322 0.0111759 -3.37646e-05 0.0313354 -0.0391863 1.1453e-12 0.0215667 -0.0129456 0.0308822 
0.0461158 0.0199709 -0.000141968 -0.00176646 0.0913229 -0.00237675 0.025998 -0.0145284 -3.92304e-06 
0.0255752 0.00832704 -0.0114399 0.00610275 -0.000621733 1.00628e-13 -0.00356318 0.00755928 -7.93929e-05 
-0.00406992 0.024101 -0.000823018 -0.00467054 -0.00236047 -0.000413274 0.0839014 -0.324474 -0.0146327 
-0.030308 -0.0886653 -0.132542 -0.0411962 0.0741636 -0.0317291 -0.0325253 0.031046 -7.41672e-10 
0.0384558 -0.080988 -0.183203 0.0495672 0.016817 -0.00381335 -0.00107119 0.0115061 -0.00216949 
-0.013023 0.0229786 -0.000820875 0.0170018 0.00242732 -0.000808503 -0.0613711 0.0597948 -0.00566808 
-0.0846712 -0.0579698 0.0746431 0.108131 -0.080884 0.0457352 0.0351852 0.0554681 1.10835e-08 
-0.0316692 -0.00616772 -0.000624139 0.0420138 -0.112025 -0.29148 0.0217712 -0.0159504 0.00494282 
-0.00529201 0.0215405 4.71654e-06 0.00580546 0.00863694 0.00211899 -0.0136355 -0.0443201 -0.0114202 
-0.0897328 -0.00621102 0.00370155 -0.0282536 -0.00692403 5.18233e-08 0.0136559 0.00837248 -1.03621e-11 
0.190293 0.132553 -4.48395e-08 -0.0412211 -0.00405169 -0.0365763 -0.0818626 -0.103644 -4.23252e-07 
-0.0425703 -0.0917409 -0.0397651 -0.0220822 0.018711 -1.57834e-08 -0.00886274 -0.0120032 -1.50217e-05 
0.0146417 -0.0213823 0.00164949 0.0128829 -0.0230155 0.000580339 0.0260516 0.0133357 5.46177e-13 
-0.20855 -0.074484 0.1262 0.0249649 0.0628711 -0.00129781 -0.0521788 -0.078779 -0.00231426 
-0.0377848 1.12438e-05 -8.78948e-05 -0.0214935 -0.0250864 -0.0012087 0.0102299 -0.0254833 5.18366e-05 
0.0455395 0.0115255 0.0301116 0.146136 -0.0336328 -0.0135876 0.00472466 -0.0131792 -0.000648468 
-0.136634 -0.0903692 -0.000820391 0.0105087 0.0219768 0.000417312 0.0647176 0.0818307 -2.46746e-05 
-0.0120039 0.0738366 -0.000681107 -0.195754 -0.308468 0.623905 -0.0296922 0.00674049 7.13733e-06 
-0.00659305 -0.0294755 -7.68439e-08 0.00171625 -0.00681138 1.7302e-09 -0.00532248 -0.0164842 -0.00141564 
-0.0957387 -0.0815828 0.0101554 0.0373509 -0.0778783 4.47123e-06 -0.0431448 -0.0405331 -0.00992068 
-0.00508977 -0.015501 0.000563195 0.00499181 0.0132744 1.31922e-08 0.00643868 -0.0324749 0.000651749 
0.0146692 -0.0190094 -0.00153057 0.00606649 -0.0101478 0.00900671 -0.0624915 0.00299714 1.73998e-05 
-0.019404 0.0551369 1.65034e-07 0.0202641 0.0536507 3.46931e-05 -0.0396684 0.00582689 0.0120327 
0.00365651 -0.0166152 -1.02108e-10 0.082791 -0.00765901 0.00272274 0.0120594 -0.0145981 -0.00889478 
0.00776946 -0.207512 0.0217862 -0.0107065 0.0083822 -0.000323688 0.00770734 -0.0136827 -0.0413204 
0.00213753 -0.0253927 -1.4916e-13 0.015667 -0.0156499 -0.0107655 -0.0550183 -0.06142 0.360002 
0.0191236 -0.0339252 3.56539e-13 0.00714955 -0.0334445 0.0124608 0.0188523 -0.0108426 0.0143272 
-0.0632596 -0.0637846 -1.5286e-10 -0.0376175 0.0231075 -0.0003004 0.000454615 -0.0646539 3.16798e-06 
-0.00254923 -0.0312827 0.00812166 -0.0413551 0.00692611 0.0113678 0.0353383 0.0266069 0.0879476 
0.0634684 -0.0283096 2.05208e-05 -0.0159816 -0.0699118 0.00671599 -0.00307313 0.0162595 -0.000294432 
-0.0216703 -0.0397155 -3.79297e-05 0.007645 -0.00914733 2.44074e-05 0.00607207 -0.0124927 4.70978e-08 
0.0356236 -0.00939125 0.00631544 -0.0176217 0.0043995 6.72593e-13 -0.0452948 -0.0673778 0.0101364 
0.0174322 0.0120533 0.000162615 -0.0583965 -0.0524308 -0.0166845 -0.0544425 -0.0571593 0.00752675 
-0.0340893 -0.0951411 0.0170046 -0.0607928 -0.00628945 0.0129026 0.0754338 0.0238033 -1.70874e-12 
-0.0406589 0.0352784 -0.00063381 0.0507386 -0.00959529 1.5431e-12 0.0979067 0.00277807 -0.0222387 
0.0159364 -0.00375989 2.21577e-06 0.0217687 -0.0626804 2.31935e-07 0.0260048 -0.0651292 4.36979e-05 
0.0139479 0.0144719 2.64545e-09 0.0464215 -0.0146269 0.000620978 -0.00217238 -0.00349779 5.00041e-05 
0.000899966 0.00061084 -3.14827e-12 0.00231426 0.000730367 3.57361e-09 -0.0174155 0.035343 0.138606 
-0.1628 -0.0501471 0.0161546 0.0161413 -0.0641169 -0.000368044 -0.051886 -0.0373739 -0.00273564 
-0.0801372 -0.0214708 -1.386e-06 -0.053506 -0.0169825 -0.0143724 0.104201 -0.0266987 0.0221997 
0.119047 0.00278614 0.0176851 -0.0766045 0.0699573 0.00802444 0.0351767 0.00720892 7.24008e-13 
-0.025563 -0.029554 0.0954802 -0.0006293 -4.41507e-05 -4.81143e-05 0.01492 0.000331576 -5.32686e-13 
-0.0171799 -0.0222971 0.000239539 -0.0985512 0.087921 -0.024945 -0.0923784 0.138009 0.132186 
-0.0340566 0.133642 -0.0042726 -0.113365 -0.00880068 0.00181072 0.0224455 -0.0355392 0.00485847 
-0.0135724 -0.0393916 -3.16893e-13 -0.00359856 -0.0590584 -0.00445208 -0.0464339 -0.0183427 0.031726 
-0.0191072 -0.0015714 -8.25553e-05 -0.0179092 0.0692547 -0.0763392 0.0410523 0.021213 2.93329e-13 
0.047572 -0.0796738 0.153453 -0.0247948 0.00347293 0.164833 -0.00519287 0.00573829 5.68446e-06 
-0.00393313 -0.0142618 -3.70813e-05 -0.0215386 0.0126508 -0.000936436 0.0282759 0.0327185 0.114105 
0.0281881 -0.00692827 0.0134216 0.0161882 -0.0867728 -0.0238909 0.0329687 0.0163675 0.00330535 
-0.0596928 -0.161615 -6.96026e-07 0.0246462 -0.151135 0.00725903 0.00366742 0.052146 -0.0193982 
0.00771862 -0.00817253 9.19393e-09 0.0428247 0.0205972 -1.04596e-05 0.0165666 -0.00157456 0.00120828 
0.00648754 -0.0229661 -0.0176914 0.000736935 -0.00297407 -0.000324656 -0.0131476 -0.0227695 -0.000679851 
-0.019686 -0.0136461 0.00740346 0.0250608 0.0362904 0.00578863 0.0148893 0.0177519 -0.0111477 
0.0128693 -0.00224101 0.00174957 0.0844179 0.0304375 0.00165682 -0.0473725 0.0297801 0.0642585 
-0.011928 -0.0638595 -0.0373936 -0.00156174 0.0328558 -0.00015839 0.010853 -0.0311818 2.3224e-10 
0.000567795 -0.0202565 -0.0117557 0.0154055 -0.0395693 -0.0686841 0.0488002 0.0207176 -0.00124214 
0.0447827 -0.0732868 0.0696904 -0.0987987 0.275491 0.00691471 0.023686 0.0145886 -0.000227532 
0.0302728 -0.0195841 -3.83233e-05 0.024806 -0.0202986 1.03616e-08 0.0236609 0.0129762 0.000137403 
0.00887822 0.00668727 -0.00086563 -0.00799197 0.00613205 0.000189593 -0.0239744 -0.00129615 9.52501e-06 
-0.0142195 0.0364878 -0.000241221 -0.0985577 -0.02426 2.07591e-05 -0.0759064 0.00294296 -0.0239534 
-0.0357946 -0.0160705 -4.68152e-08 -0.0565395 0.0235737 0.00986061 -0.0604444 0.062695 -0.0273716 
0.0536725 -0.00433244 4.29421e-05 0.0155567 -0.00286402 -3.94916e-11 0.0755091 -0.00518639 -0.0133302 
0.0916511 -0.00914409 -0.0183731 -0.00108374 0.00378633 -0.000283746 0.00739148 0.0352785 -0.00275829 
0.0122371 -0.0214899 -3.99269e-05 0.00798746 -0.0119329 0.000332938 -0.0263349 0.00788158 -2.43046e-06 
-0.0324131 0.0233408 -3.15584e-05 -0.0912396 -0.0363745 -0.01409 -0.120708 0.00880493 0.000150043 
-0.0347357 0.048534 -0.00756726 -0.0562978 -0.0562245 -0.000384495 0.0415315 -0.0166142 -0.0217238 
0.0841214 0.110538 7.11746e-12 0.0823339 -0.0318496 0.0645883 0.107993 -0.0225211 0.0258608 
-0.014257 0.0173593 -1.55502e-09 -0.000881626 0.0106036 -0.000572883 0.0108613 -0.106609 0.0264124 
-0.0277938 -0.0618678 0.016034 -0.0882234 -0.00126846 0.00388469 0.0738273 0.0404966 8.81594e-05 
-0.0351809 -0.00857536 0.0145511 0.00240166 0.0203048 5.0585e-09 0.0199348 0.0108677 -2.39586e-14 
0.054186 -0.0484941 -0.0287765 -0.0493883 0.0145519 0.00453031 -0.000469833 1.85814e-05 -0.00261262 
-0.00182011 0.0223074 0.00870911 -0.00556561 -0.0122522 -0.000689582 0.0199405 -0.057918 0.0530916 
-0.188133 -0.103257 0.00535766 -0.150995 -0.0521136 -1.08177e-05 0.0316984 0.0240622 1.60099e-08 
0.0568077 0.0433168 -1.64787e-08 0.0752724 -0.104748 -3.17812e-05 -0.0250683 0.0368995 0.0492529 
-0.00673457 0.0121396 -0.0249818 0.00617912 0.00570484 -0.000109083 0.00847799 -0.00232199 0.0386637 
-0.0354167 0.0490294 -4.65202e-13 -0.0452153 0.0555217 4.1975e-13 -0.0363487 0.0887358 -2.12151e-13 
-0.154413 -0.0279631 0.00289987 0.0745252 -0.0520355 -0.0193005 0.222593 0.172562 0.0311702 
0.0318815 -0.0536401 0.00717496 -0.0213606 -0.00646131 8.4244e-06 0.00656553 -0.0290564 -0.0094895 
0.00546726 0.0118379 -0.000812785 0.00872489 0.00153496 0.000300003 -0.00309085 -0.0301747 -4.65008e-13 
-0.0559299 -0.00446306 -0.0250315 -0.0482086 -0.331394 -0.0151611 -0.0641742 0.0589474 -0.00736313 
0.0316201 -0.0142232 3.98139e-06 0.0325971 0.0156664 0.00232162 -0.0377828 -0.036828 0.00574949 
0.0071155 0.00252832 -4.14128e-05 -0.0073605 -0.127282 -0.00221228 -0.101033 0.0126497 -0.000607324 
-0.106491 -0.00892399 1.72092e-05 -0.00641911 -0.00620875 0.00307438 -0.0551637 -0.121776 0.0274977 
-0.030938 0.00382961 -4.44572e-05 -0.0474296 0.0607256 0.00091242 0.0581957 0.0733247 0.00022844 
0.00672613 0.020949 0.000273747 0.0175956 0.00130919 6.05902e-06 0.0128462 0.00312871 1.05019e-09 
0.00462851 0.0046427 -7.21415e-07 0.0106167 -0.0189327 1.67866e-07 0.00287802 -0.00634579 -0.00792918 
-0.114138 0.083136 0.00136472 -0.0159288 0.0488188 -0.000598691 0.0160362 -0.0299624 -0.00102711 
0.00456817 -0.019339 5.76471e-07 0.0111285 -7.10353e-05 -7.36881e-06 -0.0153294 0.0115071 4.0486e-14 
-0.0186267 0.0220309 -5.09322e-13 -0.0181145 0.0104683 4.5319e-13 -0.0238331 -0.0080919 2.5768e-05 
-0.021512 -0.0188467 -0.00984724 -0.040794 0.041451 -2.63532e-05 -0.133688 -0.0955764 -0.0248464 
0.0323584 -0.0429393 0.000179403 0.0345731 0.0177643 -0.000330024 0.148773 -0.0514528 -0.00952111 
-0.021697 -0.00438249 -0.00834635 0.00204567 -0.0208404 3.30136e-05 -0.011449 -0.00639285 5.33919e-07 
-0.0167033 0.019902 0.0100083 -0.00277497 -0.025263 0.00393701 -0.00136052 -0.0101386 0.0031181 
0.0370798 0.00807105 0.0177002 0.0316792 -0.0165282 0.000910641 0.0191547 0.0151955 -0.000288182 
0.0136239 -0.00048353 -0.000833135 -0.0019351 -0.00223222 -0.00113075 -0.00784893 -0.00340847 -0.000267002 
-0.00404708 0.00103475 -4.00351e-05 0.000368958 0.00057912 5.88619e-05 0.0678213 0.012394 -0.0211908 
-0.131342 -0.060736 0.0261192 -0.0132996 0.00805272 0.019906 0.0227273 0.0108342 -0.00342724 
-0.0248149 -0.00392013 5.36718e-05 -0.0294341 0.0249758 -0.000963705 -0.0127942 -0.026192 -1.99365e-08 
0.0154481 -0.0488052 -0.00170207 -0.00379393 -0.001575 0.00115728 -0.00192949 -0.000283094 -0.000292035 