# vtk DataFile Version 4.0
Generated by LIGGGHTS
ASCII
DATASET POLYDATA
POINTS 769 float
-0.0135738 -0.0478025 0.0811152 -0.00927132 -0.048623 0.0811205 -0.00484268 -0.0491276 0.0811195 
-0.000803791 -0.0486649 0.0821184 0.00451963 -0.0489055 0.08112 0.00928574 -0.0487716 0.0811208 
0.0120381 -0.0475825 0.0811206 -0.0209651 -0.0449259 0.0811205 -0.0156169 -0.0456061 0.0811205 
-0.0106619 -0.0456967 0.0811485 -0.00753429 -0.0461469 0.0811512 -0.0029082 -0.0453764 0.0811207 
0.0150269 -0.0473019 0.0811199 0.0132375 -0.0447724 0.0812954 0.0180785 -0.0460427 0.0811203 
0.0230505 -0.0440387 0.0811195 -0.0243546 -0.0432626 0.0811205 -0.0214933 -0.0406459 0.0821183 
-0.0129141 -0.0435949 0.08118 -0.0157486 -0.0426092 0.0811198 -0.0130435 -0.0405103 0.0811205 
-0.00898049 -0.0411159 0.0811205 -0.00658005 -0.0432706 0.0811199 -0.00453021 -0.0409062 0.0811205 
-0.000312318 -0.0438133 0.0811205 -0.00142034 -0.0408147 0.0811311 0.0126599 -0.0408713 0.0821867 
0.0168031 -0.0430421 0.0811206 0.0199028 -0.0417837 0.0815013 0.025738 -0.0412515 0.0821179 
-0.0326271 -0.037362 0.0811206 -0.0284382 -0.0379832 0.0811198 -0.0255968 -0.0402946 0.08112 
-0.0161357 -0.0368861 0.0811205 0.00516493 -0.0371396 0.0821293 0.00798577 -0.039971 0.0811178 
0.0132073 -0.0368583 0.0811206 0.0174533 -0.0400393 0.0811203 0.0198537 -0.0376954 0.0811273 
0.0221135 -0.039784 0.0811205 0.0250894 -0.0374019 0.0811205 0.0280198 -0.0380895 0.0811205 
0.0317549 -0.0368452 0.0821178 -0.0346619 -0.0340651 0.0821184 -0.0296241 -0.0339513 0.0821134 
-0.0258255 -0.0356973 0.0811205 -0.0225291 -0.0360579 0.0813093 -0.0124048 -0.0358703 0.0811276 
-0.0104103 -0.0331825 0.0811199 0.0101721 -0.0336879 0.082169 0.0154851 -0.0349053 0.0811182 
0.0184008 -0.0342093 0.0811196 0.0222488 -0.03455 0.0821427 0.027573 -0.0341076 0.0823068 
0.0363025 -0.0337231 0.0811195 -0.0392387 -0.0304531 0.0811211 -0.00814347 -0.0299037 0.0811157 
-0.00548701 -0.0327114 0.0821212 0.0157262 -0.0319072 0.0811312 0.0213275 -0.0306164 0.0810924 
0.0308153 -0.0317792 0.0818568 0.0333006 -0.0332881 0.0811203 0.0334028 -0.0302865 0.0811205 
0.0377294 -0.0300438 0.082118 -0.0364664 -0.0283067 0.0811205 -0.0325488 -0.0295209 0.0821184 
-0.0274943 -0.0293881 0.0822236 -0.0211592 -0.0294561 0.0818407 -0.0180013 -0.0296716 0.0811149 
-0.00859559 -0.0267343 0.0811205 -0.000976056 -0.0291369 0.0821183 0.00690614 -0.0290578 0.0821183 
0.0118032 -0.0297615 0.0811301 0.0155308 -0.0279724 0.0821174 0.0254537 -0.0295302 0.0821183 
0.0342333 -0.0264653 0.0821183 0.0413959 -0.027471 0.0811205 -0.0417297 -0.0233628 0.0811184 
-0.042002 -0.026416 0.0811318 -0.038357 -0.0257135 0.0811205 -0.0351532 -0.0253218 0.081195 
-0.0319041 -0.0249915 0.0811202 -0.0289939 -0.0258565 0.0811164 -0.00493699 -0.0258142 0.0811205 
-0.00393835 -0.0229078 0.0811205 0.00157036 -0.0257755 0.0811705 0.0109458 -0.0259784 0.0821193 
0.0148613 -0.024128 0.0811274 0.0206041 -0.0249831 0.0820802 0.0291568 -0.0253305 0.0821868 
0.0383603 -0.026201 0.0811205 0.042931 -0.0248872 0.0811205 -0.0455705 -0.0197429 0.0811196 
-0.0442573 -0.0221974 0.0822325 -0.0411597 -0.0195346 0.0821185 -0.0388201 -0.022636 0.081121 
-0.0257681 -0.0211343 0.0821183 -0.0222925 -0.0193811 0.0811189 -0.00631579 -0.0202972 0.0811205 
0.00542089 -0.0211763 0.0821184 0.00901274 -0.0226233 0.0811205 0.0125832 -0.0209881 0.0821252 
0.0185222 -0.0220105 0.0811205 0.0215258 -0.022214 0.0811206 0.025975 -0.0206609 0.0821183 
0.0326006 -0.02172 0.0821159 0.0377727 -0.0223556 0.0821152 0.0422578 -0.021942 0.0811204 
0.0404319 -0.0195363 0.0811205 0.0456939 -0.0193634 0.0811123 -0.0455583 -0.0158776 0.0821406 
-0.0369067 -0.0175499 0.0811205 -0.0337144 -0.0170895 0.0811272 -0.029951 -0.0178747 0.0811205 
-0.0245775 -0.0173244 0.081113 -0.0216645 -0.0164544 0.0811111 -0.0187133 -0.0175058 0.0811205 
-0.0107406 -0.0171921 0.0811205 -0.00402133 -0.0182733 0.0811205 -0.000104614 -0.0181208 0.0821167 
0.00336305 -0.0161165 0.0811205 0.0113347 -0.0172793 0.0811313 0.0170033 -0.0192774 0.0811025 
0.0164495 -0.0157275 0.0812557 0.0201723 -0.0187386 0.0811391 0.032257 -0.0174724 0.0818062 
0.037936 -0.0173966 0.0811214 0.0429484 -0.0165909 0.0821186 -0.0411276 -0.0127333 0.0821145 
-0.0311837 -0.0141355 0.0821443 -0.0266448 -0.0146381 0.0811205 -0.0236684 -0.014139 0.0811205 
-0.0203419 -0.0137993 0.0814751 -0.0174303 -0.0132136 0.0811189 -0.0133531 -0.0156532 0.0811195 
-0.0107355 -0.0141284 0.0811205 -0.00484617 -0.0141957 0.0821183 0.00421474 -0.0125438 0.0811551 
0.00633445 -0.0156156 0.0811205 0.00850106 -0.0122972 0.0821179 0.0123147 -0.0145822 0.0820534 
0.0200982 -0.0143292 0.0821196 0.0240208 -0.014338 0.0811613 0.0396014 -0.0146351 0.0811202 
0.0373145 -0.0126897 0.0811211 0.0453175 -0.0124438 0.0811199 0.0475028 -0.0144981 0.0811197 
-0.0470704 -0.0108474 0.0821197 -0.0373856 -0.0113035 0.0811243 -0.0349192 -0.00948967 0.08121 
-0.0253376 -0.0116364 0.0811194 -0.0229805 -0.00978619 0.0811226 -0.0201626 -0.0108148 0.0811179 
-0.013825 -0.0117564 0.0820901 -0.00888443 -0.0104419 0.0821183 0.00503895 -0.00859776 0.0821186 
0.0124295 -0.00913729 0.0813606 0.0210651 -0.00901757 0.0811206 0.0352262 -0.0105291 0.0811207 
0.0402339 -0.00962985 0.08113 0.0420715 -0.0119985 0.0811176 0.0484989 -0.0106605 0.08112 
-0.0492118 -0.00687416 0.0811205 -0.0447437 -0.00773857 0.0811373 -0.0392965 -0.00706641 0.0821052 
-0.0349054 -0.00598877 0.0811205 -0.0290042 -0.0083257 0.0811205 -0.0276303 -0.00541094 0.0811185 
-0.0248674 -0.0066734 0.0811205 -0.0198815 -0.00695772 0.0821228 -0.0154027 -0.00782894 0.0811205 
-0.0123471 -0.0080063 0.0812104 -0.00970326 -0.00583354 0.0811205 -0.00281952 -0.00543433 0.082148 
0.00110809 -0.00837699 0.0811205 0.0160074 -0.00761181 0.0811177 0.0253254 -0.00559226 0.0821179 
0.0340629 -0.0053813 0.0811205 0.0370398 -0.00788315 0.0812078 0.0410053 -0.00586001 0.0811082 
0.0443788 -0.00807726 0.082119 0.0490404 -0.00770867 0.0811205 -0.0487449 -0.00379325 0.0811257 
-0.0449109 -0.00382703 0.0822236 -0.0251538 -0.00356255 0.0811205 -0.0125999 -0.00491307 0.0811208 
-0.00927288 -0.00282931 0.0811123 0.0015204 -0.00488158 0.0812093 0.0128755 -0.00517253 0.0821182 
0.0293492 -0.00256808 0.0811202 0.0326337 -0.00245991 0.0811205 0.0370593 -0.00242599 0.0824454 
0.0492679 -0.00471827 0.0811846 0.049619 -0.00174041 0.081116 -0.0496217 -0.000588215 0.0811205 
-0.0474803 0.00155207 0.0811252 -0.0448847 5.53791e-05 0.0811387 -0.0413554 -0.00153454 0.0811205 
-0.0421334 0.0013673 0.0811198 -0.0329701 -0.000285937 0.0816818 -0.0285687 -0.00171652 0.0823136 
-0.0253393 0.000311808 0.0811197 0.0136465 0.00190998 0.0811205 0.0169353 -0.000154986 0.0821209 
0.0257755 -0.000617355 0.0821168 0.0292987 0.00106058 0.0811293 0.0417425 0.000917989 0.0811205 
0.0477135 0.00163104 0.0821182 -0.0494946 0.00376556 0.081117 -0.0459696 0.00413931 0.0811179 
-0.0418007 0.00506102 0.0811211 -0.0393668 0.00328046 0.0811245 -0.0350354 0.00453475 0.0811213 
-0.0312017 0.00404929 0.08212 -0.0273344 0.00404904 0.0811175 -0.0241662 0.00306999 0.08112 
-0.0220242 0.0052785 0.0811205 -0.0165991 0.00301403 0.0821183 -0.0114954 0.00379218 0.0822895 
-0.00598414 0.00273678 0.0811205 -0.000704734 0.00262448 0.0811205 0.00325766 0.00342781 0.0833328 
0.00805554 0.00397107 0.0821183 0.0123133 0.00500187 0.0811205 0.032985 0.00431833 0.0829374 
0.0368333 0.00319318 0.0811205 0.0398382 0.00333856 0.0811205 0.0435856 0.00448334 0.0821182 
-0.0480946 0.00737108 0.0821196 -0.0369725 0.00682101 0.0811388 -0.024648 0.00811554 0.0811205 
-0.0207662 0.00826687 0.0811205 -0.0177185 0.00719471 0.0811205 -0.013952 0.00814835 0.0821185 
-0.0100912 0.00806439 0.0811242 -0.00771931 0.00622092 0.0811205 -0.00387578 0.00810504 0.0821185 
0.0024314 0.00798484 0.0811205 0.012737 0.00829743 0.0811207 0.0303597 0.00703077 0.0813216 
0.036614 0.00779555 0.0821174 0.0402068 0.00636988 0.0811158 0.0481423 0.00673088 0.0821183 
-0.0422878 0.0119037 0.0811082 -0.0386695 0.0103399 0.0821244 -0.0322535 0.0102354 0.0811145 
-0.0283994 0.00997832 0.0821204 -0.0248738 0.0117667 0.0811205 -0.021528 0.011605 0.0816168 
-0.0164072 0.0111435 0.0811207 -0.0124829 0.0117303 0.0811168 -0.00762425 0.00982426 0.0812061 
0.00849389 0.0114913 0.0811205 0.0141166 0.0117236 0.0811205 0.0164492 0.00978063 0.0811205 
0.0231573 0.012165 0.0822834 0.0289204 0.0107668 0.0821438 0.0354069 0.0114851 0.0811205 
0.0387706 0.0120532 0.0811206 0.0420104 0.00979784 0.0821183 -0.0455724 0.0139313 0.0821175 
-0.0373026 0.0151373 0.0821175 -0.0327995 0.0150139 0.0811205 -0.0265373 0.0153805 0.0821373 
-0.0189298 0.0131162 0.0811205 -0.0161742 0.0143264 0.0811206 0.0128976 0.0145136 0.0812434 
0.0177985 0.0138845 0.0821202 0.02437 0.0158454 0.0811497 0.0308617 0.0145382 0.0811273 
0.0345905 0.0157359 0.0821181 0.0433451 0.0146159 0.0821179 -0.0463468 0.0177269 0.0811203 
-0.0422136 0.017658 0.082118 -0.0308585 0.0180374 0.0811192 -0.0204619 0.017051 0.0822551 
0.00262466 0.0166372 0.0820889 0.00669496 0.016592 0.0822044 0.0210922 0.0159622 0.08112 
0.0197646 0.0189062 0.0811465 0.0230023 0.0193373 0.0811205 0.0265793 0.018125 0.0811205 
0.0433839 0.0186242 0.08112 0.0463975 0.017411 0.0811525 -0.0451964 0.0205229 0.0811803 
-0.0391404 0.0206481 0.0811205 -0.0296396 0.0213437 0.0811344 -0.017888 0.0212834 0.0811205 
-0.00966476 0.0220515 0.0813231 -0.00670762 0.0227567 0.0818691 0.00542957 0.0204365 0.0811679 
0.00841773 0.0202465 0.0811183 0.00701958 0.0230974 0.0811207 0.0127831 0.0205769 0.082141 
0.0334081 0.019715 0.0811751 0.0374203 0.0202885 0.0811552 0.0406795 0.0200408 0.0811289 
0.0443937 0.0218357 0.0811211 -0.0426219 0.0235623 0.0821177 -0.0371428 0.0239761 0.0821181 
-0.0270946 0.0238798 0.0811194 -0.0222071 0.0250105 0.0821183 -0.00900161 0.0264287 0.0822289 
-0.00501496 0.0260506 0.0811203 -0.0014634 0.0237283 0.0821111 0.00282589 0.0242483 0.0812338 
0.010164 0.0244772 0.0817386 0.0185907 0.0250387 0.0821168 0.0223619 0.0241071 0.081122 
0.033302 0.0249551 0.0821182 0.0382991 0.0247478 0.0821747 -0.0387025 0.0294418 0.0821183 
[...]
POINT_DATA 769
FIELD FieldData 7
id 1 769 int
290 32 287 171 90 240 46 6 262 
96 189 166 95 12 18 98 76 119 
199 250 77 249 59 342 70 24 423 
394 19 272 178 239 431 137 366 515 
293 87 375 33 50 444 92 94 2 
316 266 204 252 371 45 21 398 258 
238 173 497 220 364 426 256 51 167 
184 278 222 310 468 273 13 182 296 
549 158 359 498 63 108 383 428 84 
164 338 421 100 580 345 354 478 449 
110 187 48 274 132 263 259 433 480 
384 35 234 495 353 43 157 221 179 
217 86 144 191 202 352 496 304 161 
101 318 30 416 237 180 492 186 11 
74 67 134 4 279 329 36 193 337 
138 54 491 291 195 595 332 229 69 
377 102 128 185 88 115 218 351 264 
197 53 319 188 114 493 174 255 10 
154 168 236 85 349 194 331 271 38 
507 275 400 276 44 459 312 355 494 
372 265 58 183 369 469 336 367 172 
324 203 160 192 288 368 253 148 356 
116 532 385 64 230 387 91 567 315 
130 149 124 325 89 381 120 519 451 
62 146 247 162 9 502 437 111 104 
350 241 145 105 306 141 22 125 55 
242 175 93 311 206 343 257 201 143 
268 107 83 447 405 455 465 481 534 
97 432 409 15 14 518 227 42 65 
210 225 501 26 82 301 321 313 467 
448 248 61 235 126 159 599 3 155 
181 326 122 267 302 466 57 441 483 
521 224 598 555 389 223 508 420 393 
327 29 1 20 270 436 533 413 516 
446 298 231 245 348 41 47 25 8 
292 127 317 347 361 309 439 205 219 
442 140 135 404 34 376 571 488 536 
99 40 23 136 200 78 129 152 176 
214 117 443 246 150 579 196 60 73 
72 103 244 177 118 133 71 380 340 
27 147 37 75 131 215 285 461 52 
254 112 81 7 142 391 458 170 212 
445 109 56 16 414 163 190 226 123 
243 251 31 299 479 358 390 211 303 
213 396 457 39 300 153 208 531 79 
541 305 547 280 542 407 207 592 277 
113 526 165 600 406 283 562 286 429 
346 412 260 216 294 17 594 517 463 
454 357 360 151 374 476 363 472 529 
505 418 545 333 606 334 403 233 591 
323 611 289 602 490 261 365 156 209 
322 402 425 49 430 573 563 382 609 
397 589 550 456 435 399 509 470 453 
612 503 570 339 341 5 415 513 440 
434 373 574 524 581 601 121 578 500 
68 487 106 410 411 232 344 282 424 
559 484 378 419 605 328 198 388 499 
482 335 281 307 582 511 228 269 486 
597 362 553 608 392 565 596 603 422 
473 297 80 464 330 489 554 607 169 
438 314 395 552 546 557 66 613 295 
528 551 584 28 587 308 588 475 417 
537 512 585 477 284 460 530 370 604 
572 593 474 452 320 590 619 548 620 
575 506 556 510 617 139 560 543 586 
577 450 427 462 544 624 386 576 485 
561 558 471 569 523 614 408 621 618 
535 379 520 610 504 622 540 514 625 
566 623 616 539 626 568 538 632 615 
633 527 564 635 637 525 627 639 522 
636 401 631 583 634 628 629 638 630 
652 641 649 643 648 651 645 650 647 
646 640 642 658 644 665 655 663 659 
660 656 654 661 662 664 657 653 678 
667 669 673 668 675 672 670 674 677 
671 666 676 682 681 680 684 683 685 
690 686 687 679 688 691 689 699 701 
702 695 698 697 694 704 693 692 696 
700 703 708 713 710 709 706 711 714 
717 707 715 716 712 724 725 705 718 
721 722 723 727 726 728 743 730 719 
720 737 729 742 731 734 738 732 735 
741 744 740 736 733 739 750 746 751 
745 754 748 752 747 755 753 756 749 
767 758 765 764 761 763 766 762 769 
768 760 757 759 
type 1 769 int
1 1 1 1 1 1 1 1 1 
1 1 1 1 1 1 1 1 1 
1 1 1 1 1 1 1 1 1 
1 1 1 1 1 1 1 1 1 
1 1 1 1 1 1 1 1 1 
1 1 1 1 1 1 1 1 1 
1 1 1 1 1 1 1 1 1 
1 1 1 1 1 1 1 1 1 
1 1 1 1 1 1 1 1 1 
1 1 1 1 1 1 1 1 1 
1 1 1 1 1 1 1 1 1 
1 1 1 1 1 1 1 1 1 
1 1 1 1 1 1 1 1 1 
1 1 1 1 1 1 1 1 1 
1 1 1 1 1 1 1 1 1 
1 1 1 1 1 1 1 1 1 
1 1 1 1 1 1 1 1 1 
1 1 1 1 1 1 1 1 1 
1 1 1 1 1 1 1 1 1 
1 1 1 1 1 1 1 1 1 
1 1 1 1 1 1 1 1 1 
1 1 1 1 1 1 1 1 1 
1 1 1 1 1 1 1 1 1 
1 1 1 1 1 1 1 1 1 
1 1 1 1 1 1 1 1 1 
1 1 1 1 1 1 1 1 1 
1 1 1 1 1 1 1 1 1 
1 1 1 1 1 1 1 1 1 
1 1 1 1 1 1 1 1 1 
1 1 1 1 1 1 1 1 1 
1 1 1 1 1 1 1 1 1 
1 1 1 1 1 1 1 1 1 
1 1 1 1 1 1 1 1 1 
1 1 1 1 1 1 1 1 1 
1 1 1 1 1 1 1 1 1 
1 1 1 1 1 1 1 1 1 
1 1 1 1 1 1 1 1 1 
1 1 1 1 1 1 1 1 1 
1 1 1 1 1 1 1 1 1 
1 1 1 1 1 1 1 1 1 
1 1 1 1 1 1 1 1 1 
1 1 1 1 1 1 1 1 1 
1 1 1 1 1 1 1 1 1 
1 1 1 1 1 1 1 1 1 
1 1 1 1 1 1 1 1 1 
1 1 1 1 1 1 1 1 1 
1 1 1 1 1 1 1 1 1 
1 1 1 1 1 1 1 1 1 
1 1 1 1 1 1 1 1 1 
1 1 1 1 1 1 1 1 1 
1 1 1 1 1 1 1 1 1 
1 1 1 1 1 1 1 1 1 
1 1 1 1 1 1 1 1 1 
1 1 1 1 1 1 1 1 1 
1 1 1 1 1 1 1 1 1 
1 1 1 1 1 1 1 1 1 
1 1 1 1 1 1 1 1 1 
1 1 1 1 1 1 1 1 1 
1 1 1 1 1 1 1 1 1 
1 1 1 1 1 1 1 1 1 
1 1 1 1 1 1 1 1 1 
1 1 1 1 1 1 1 1 1 
1 1 1 1 1 1 1 1 1 
1 1 1 1 1 1 1 1 1 
1 1 1 1 1 1 1 1 1 
1 1 1 1 1 1 1 1 1 
1 1 1 1 1 1 1 1 1 
1 1 1 1 1 1 1 1 1 
1 1 1 1 1 1 1 1 1 
1 1 1 1 1 1 1 1 1 
1 1 1 1 1 1 1 1 1 
1 1 1 1 1 1 1 1 1 
1 1 1 1 1 1 1 1 1 
1 1 1 1 1 1 1 1 1 
1 1 1 1 1 1 1 1 1 
1 1 1 1 1 1 1 1 1 
1 1 1 1 1 1 1 1 1 
1 1 1 1 1 1 1 1 1 
1 1 1 1 1 1 1 1 1 
1 1 1 1 1 1 1 1 1 
1 1 1 1 1 1 1 1 1 
1 1 1 1 1 1 1 1 1 
1 1 1 1 1 1 1 1 1 
1 1 1 1 1 1 1 1 1 
1 1 1 1 1 1 1 1 1 
1 1 1 1 
i 3 769 int
0 0 0 0 0 0 0 0 0 
0 0 0 0 0 0 0 0 0 
0 0 0 0 0 0 0 0 0 
0 0 0 0 0 0 0 0 0 
0 0 0 0 0 0 0 0 0 
0 0 0 0 0 0 0 0 0 
0 0 0 0 0 0 0 0 0 
0 0 0 0 0 0 0 0 0 
0 0 0 0 0 0 0 0 0 
0 0 0 0 0 0 0 0 0 
0 0 0 0 0 0 0 0 0 
0 0 0 0 0 0 0 0 0 
0 0 0 0 0 0 0 0 0 
0 0 0 0 0 0 0 0 0 
0 0 0 0 0 0 0 0 0 
0 0 0 0 0 0 0 0 0 
0 0 0 0 0 0 0 0 0 
0 0 0 0 0 0 0 0 0 
0 0 0 0 0 0 0 0 0 
0 0 0 0 0 0 0 0 0 
0 0 0 0 0 0 0 0 0 
0 0 0 0 0 0 0 0 0 
0 0 0 0 0 0 0 0 0 
0 0 0 0 0 0 0 0 0 
0 0 0 0 0 0 0 0 0 
0 0 0 0 0 0 0 0 0 
0 0 0 0 0 0 0 0 0 
0 0 0 0 0 0 0 0 0 
0 0 0 0 0 0 0 0 0 
0 0 0 0 0 0 0 0 0 
0 0 0 0 0 0 0 0 0 
0 0 0 0 0 0 0 0 0 
0 0 0 0 0 0 0 0 0 
0 0 0 0 0 0 0 0 0 
0 0 0 0 0 0 0 0 0 
0 0 0 0 0 0 0 0 0 
0 0 0 0 0 0 0 0 0 
0 0 0 0 0 0 0 0 0 
0 0 0 0 0 0 0 0 0 
0 0 0 0 0 0 0 0 0 
0 0 0 0 0 0 0 0 0 
0 0 0 0 0 0 0 0 0 
0 0 0 0 0 0 0 0 0 
0 0 0 0 0 0 0 0 0 
0 0 0 0 0 0 0 0 0 
0 0 0 0 0 0 0 0 0 
0 0 0 0 0 0 0 0 0 
0 0 0 0 0 0 0 0 0 
0 0 0 0 0 0 0 0 0 
0 0 0 0 0 0 0 0 0 
0 0 0 0 0 0 0 0 0 
0 0 0 0 0 0 0 0 0 
0 0 0 0 0 0 0 0 0 
0 0 0 0 0 0 0 0 0 
0 0 0 0 0 0 0 0 0 
0 0 0 0 0 0 0 0 0 
0 0 0 0 0 0 0 0 0 
0 0 0 0 0 0 0 0 0 
0 0 0 0 0 0 0 0 0 
0 0 0 0 0 0 0 0 0 
0 0 0 0 0 0 0 0 0 
0 0 0 0 0 0 0 0 0 
0 0 0 0 0 0 0 0 0 
0 0 0 0 0 0 0 0 0 
0 0 0 0 0 0 0 0 0 
0 0 0 0 0 0 0 0 0 
0 0 0 0 0 0 0 0 0 
0 0 0 0 0 0 0 0 0 
0 0 0 0 0 0 0 0 0 
0 0 0 0 0 0 0 0 0 
0 0 0 0 0 0 0 0 0 
0 0 0 0 0 0 0 0 0 
0 0 0 0 0 0 0 0 0 
0 0 0 0 0 0 0 0 0 
0 0 0 0 0 0 0 0 0 
0 0 0 0 0 0 0 0 0 
0 0 0 0 0 0 0 0 0 
0 0 0 0 0 0 0 0 0 
0 0 0 0 0 0 0 0 0 
0 0 0 0 0 0 0 0 0 
0 0 0 0 0 0 0 0 0 
0 0 0 0 0 0 0 0 0 
0 0 0 0 0 0 0 0 0 
0 0 0 0 0 0 0 0 0 
0 0 0 0 0 0 0 0 0 
0 0 0 0 0 0 0 0 0 
0 0 0 0 0 0 0 0 0 
0 0 0 0 0 0 0 0 0 
0 0 0 0 0 0 0 0 0 
0 0 0 0 0 0 0 0 0 
0 0 0 0 0 0 0 0 0 
0 0 0 0 0 0 0 0 0 
0 0 0 0 0 0 0 0 0 
0 0 0 0 0 0 0 0 0 
0 0 0 0 0 0 0 0 0 
0 0 0 0 0 0 0 0 0 
0 0 0 0 0 0 0 0 0 
0 0 0 0 0 0 0 0 0 
0 0 0 0 0 0 0 0 0 
0 0 0 0 0 0 0 0 0 
0 0 0 0 0 0 0 0 0 
0 0 0 0 0 0 0 0 0 
0 0 0 0 0 0 0 0 0 
0 0 0 0 0 0 0 0 0 
0 0 0 0 0 0 0 0 0 
0 0 0 0 0 0 0 0 0 
0 0 0 0 0 0 0 0 0 
0 0 0 0 0 0 0 0 0 
0 0 0 0 0 0 0 0 0 
0 0 0 0 0 0 0 0 0 
0 0 0 0 0 0 0 0 0 
0 0 0 0 0 0 0 0 0 
0 0 0 0 0 0 0 0 0 
0 0 0 0 0 0 0 0 0 
0 0 0 0 0 0 0 0 0 
0 0 0 0 0 0 0 0 0 
0 0 0 0 0 0 0 0 0 
0 0 0 0 0 0 0 0 0 
0 0 0 0 0 0 0 0 0 
0 0 0 0 0 0 0 0 0 
0 0 0 0 0 0 0 0 0 
0 0 0 0 0 0 0 0 0 
0 0 0 0 0 0 0 0 0 
0 0 0 0 0 0 0 0 0 
0 0 0 0 0 0 0 0 0 
0 0 0 0 0 0 0 0 0 
0 0 0 0 0 0 0 0 0 
0 0 0 0 0 0 0 0 0 
0 0 0 0 0 0 0 0 0 
0 0 0 0 0 0 0 0 0 
0 0 0 0 0 0 0 0 0 
0 0 0 0 0 0 0 0 0 
0 0 0 0 0 0 0 0 0 
0 0 0 0 0 0 0 0 0 
0 0 0 0 0 0 0 0 0 
0 0 0 0 0 0 0 0 0 
0 0 0 0 0 0 0 0 0 
0 0 0 0 0 0 0 0 0 
0 0 0 0 0 0 0 0 0 
0 0 0 0 0 0 0 0 0 
0 0 0 0 0 0 0 0 0 
0 0 0 0 0 0 0 0 0 
0 0 0 0 0 0 0 0 0 
0 0 0 0 0 0 0 0 0 
0 0 0 0 0 0 0 0 0 
0 0 0 0 0 0 0 0 0 
0 0 0 0 0 0 0 0 0 
0 0 0 0 0 0 0 0 0 
0 0 0 0 0 0 0 0 0 
0 0 0 0 0 0 0 0 0 
0 0 0 0 0 0 0 0 0 
0 0 0 0 0 0 0 0 0 
0 0 0 0 0 0 0 0 0 
0 0 0 0 0 0 0 0 0 
0 0 0 0 0 0 0 0 0 
0 0 0 0 0 0 0 0 0 
0 0 0 0 0 0 0 0 0 
0 0 0 0 0 0 0 0 0 
0 0 0 0 0 0 0 0 0 
0 0 0 0 0 0 0 0 0 
0 0 0 0 0 0 0 0 0 
0 0 0 0 0 0 0 0 0 
0 0 0 0 0 0 0 0 0 
0 0 0 0 0 0 0 0 0 
0 0 0 0 0 0 0 0 0 
0 0 0 0 0 0 0 0 0 
0 0 0 0 0 0 0 0 0 
0 0 0 0 0 0 0 0 0 
0 0 0 0 0 0 0 0 0 
0 0 0 0 0 0 0 0 0 
0 0 0 0 0 0 0 0 0 
0 0 0 0 0 0 0 0 0 
0 0 0 0 0 0 0 0 0 
0 0 0 0 0 0 0 0 0 
0 0 0 0 0 0 0 0 0 
0 0 0 0 0 0 0 0 0 
0 0 0 0 0 0 0 0 0 
0 0 0 0 0 0 0 0 0 
0 0 0 0 0 0 0 0 0 
0 0 0 0 0 0 0 0 0 
0 0 0 0 0 0 0 0 0 
0 0 0 0 0 0 0 0 0 
0 0 0 0 0 0 0 0 0 
0 0 0 0 0 0 0 0 0 
0 0 0 0 0 0 0 0 0 
0 0 0 0 0 0 0 0 0 
0 0 0 0 0 0 0 0 0 
0 0 0 0 0 0 0 0 0 
0 0 0 0 0 0 0 0 0 
0 0 0 0 0 0 0 0 0 
0 0 0 0 0 0 0 0 0 
0 0 0 0 0 0 0 0 0 
0 0 0 0 0 0 0 0 0 
0 0 0 0 0 0 0 0 0 
0 0 0 0 0 0 0 0 0 
0 0 0 0 0 0 0 0 0 
0 0 0 0 0 0 0 0 0 
0 0 0 0 0 0 0 0 0 
0 0 0 0 0 0 0 0 0 
0 0 0 0 0 0 0 0 0 
0 0 0 0 0 0 0 0 0 
0 0 0 0 0 0 0 0 0 
0 0 0 0 0 0 0 0 0 
0 0 0 0 0 0 0 0 0 
0 0 0 0 0 0 0 0 0 
0 0 0 0 0 0 0 0 0 
0 0 0 0 0 0 0 0 0 
0 0 0 0 0 0 0 0 0 
0 0 0 0 0 0 0 0 0 
0 0 0 0 0 0 0 0 0 
0 0 0 0 0 0 0 0 0 
0 0 0 0 0 0 0 0 0 
0 0 0 0 0 0 0 0 0 
0 0 0 0 0 0 0 0 0 
0 0 0 0 0 0 0 0 0 
0 0 0 0 0 0 0 0 0 
0 0 0 0 0 0 0 0 0 
0 0 0 0 0 0 0 0 0 
0 0 0 0 0 0 0 0 0 
0 0 0 0 0 0 0 0 0 
0 0 0 0 0 0 0 0 0 
0 0 0 0 0 0 0 0 0 
0 0 0 0 0 0 0 0 0 
0 0 0 0 0 0 0 0 0 
0 0 0 0 0 0 0 0 0 
0 0 0 0 0 0 0 0 0 
0 0 0 0 0 0 0 0 0 
0 0 0 0 0 0 0 0 0 
0 0 0 0 0 0 0 0 0 
0 0 0 0 0 0 0 0 0 
0 0 0 0 0 0 0 0 0 
0 0 0 0 0 0 0 0 0 
0 0 0 0 0 0 0 0 0 
0 0 0 0 0 0 0 0 0 
0 0 0 0 0 0 0 0 0 
0 0 0 0 0 0 0 0 0 
0 0 0 0 0 0 0 0 0 
0 0 0 0 0 0 0 0 0 
0 0 0 0 0 0 0 0 0 
0 0 0 0 0 0 0 0 0 
0 0 0 0 0 0 0 0 0 
0 0 0 0 0 0 0 0 0 
0 0 0 0 0 0 0 0 0 
0 0 0 0 0 0 0 0 0 
0 0 0 0 0 0 0 0 0 
0 0 0 0 0 0 0 0 0 
0 0 0 0 0 0 0 0 0 
0 0 0 0 0 0 0 0 0 
0 0 0 0 0 0 0 0 0 
0 0 0 0 0 0 0 0 0 
0 0 0 0 0 0 0 0 0 
0 0 0 0 0 0 0 0 0 
0 0 0 0 0 0 0 0 0 
0 0 0 0 0 0 0 0 0 
0 0 0 0 0 0 0 0 0 
0 0 0 0 0 0 0 0 0 
0 0 0 
v 3 769 double
-0.00862507 -0.00130284 0.00635183 -0.0356535 0.0102057 -0.000116785 0.0195284 0.000798502 6.97749e-05 
-0.00195305 0.00243634 -0.000170691 -0.00302137 0.0336849 0.0035558 -0.017047 -0.00101495 -0.00127371 
-0.01231 -0.0272058 0.000742218 0.0223221 -0.00683744 3.56958e-13 -0.00541521 0.00569578 0.000610814 
-0.0226029 -0.0338245 0.00642731 0.0218085 -0.0186878 -0.00627494 0.0199366 0.0190147 -0.000376028 
-0.0145248 -0.00546973 0.000452405 -0.0579368 0.00579527 -0.0324012 -0.0164357 -0.00426398 -0.000127718 
0.00401032 -0.00130531 -0.000101996 0.0110522 -0.0028357 -4.35919e-05 0.00609863 0.0058311 -3.16691e-05 
-0.0379743 -0.0298807 0.0371725 -0.034606 0.00583887 0.00531442 -0.00164295 0.00339823 -3.23887e-07 
0.00794717 0.016112 0.000152844 -0.0100101 -0.00658799 0.00181094 -0.00205058 0.0144572 -1.88423e-05 
0.0412444 -0.00710422 3.99808e-08 0.00555492 -0.0839718 0.0118649 -0.0370619 0.0174329 -0.0102043 
-0.0490106 -0.0106103 -5.92081e-05 -0.0100704 -0.00344059 -0.0511363 0.000372829 0.00114516 1.96433e-05 
-0.000236367 0.00464155 0.000150309 -0.0103246 0.0228443 0.00268634 0.0135417 0.0012113 0.000503549 
-0.0119805 0.0297262 4.04854e-14 0.251815 0.103461 -0.0427695 -0.0482259 0.0210811 -0.002606 
-0.0459934 0.00847605 9.86629e-06 -0.0240149 0.00796189 -0.000307416 0.0165997 0.011076 0.0185609 
-0.00506412 0.00431725 2.93807e-05 -0.00692721 0.00267496 -9.85347e-05 -0.0042593 0.000854698 4.54764e-05 
0.00121105 0.000848744 3.99809e-05 -0.0102569 -0.000536605 -0.000166802 -0.0190282 0.0104031 -0.00465191 
0.0121875 0.0276464 -0.00137 -0.126103 0.030079 -0.107096 -0.0277021 0.0537863 -0.00185932 
-0.0362658 0.0430401 0.00145805 -0.188848 -0.00719586 -0.00149559 -0.0517181 0.0279597 -0.00214127 
-0.044198 0.0114249 -0.00774534 -0.0479948 0.023982 0.0245659 0.0113096 0.0158747 -0.0430474 
0.00506829 -0.00337052 -0.000400815 -0.0467831 0.0677623 -0.00372684 -0.0470416 0.0544432 0.00403571 
-0.0628112 0.0329435 0.00330516 -0.0818006 0.009914 0.0260618 0.0503388 0.0519845 0.0432721 
0.00916383 0.0193788 -0.0227031 0.00440843 0.00062882 -5.52248e-05 0.00730053 0.00197645 -9.03629e-06 
0.0159497 0.0031569 2.31749e-05 0.0168471 0.0383194 -1.35977e-09 -0.0369987 0.0181929 -1.08029e-06 
-0.0194226 0.0196347 -0.0165179 0.250374 -0.176028 -0.134457 -0.0765803 -0.0831074 -0.06294 
0.170001 -0.0891485 1.43274e-05 -0.031494 0.023085 1.85992e-06 0.00751437 -0.0274037 -1.41359e-05 
-0.000713304 -0.00303417 -0.00112774 0.012144 0.0386118 0.0013946 0.0444657 0.0292271 1.73026e-06 
0.0108448 -0.000756123 -4.67904e-05 -0.0111926 -0.0154788 -1.57034e-07 -0.000151804 -0.00454157 0.00106572 
0.0109827 -0.0324444 -0.139749 0.0714897 -0.0304599 -1.72716e-05 -0.0219638 0.0347591 0.000519658 
0.022668 0.0177021 -0.000366301 -0.00832722 0.0419572 -0.00365943 0.0708857 0.00857445 -1.28847e-08 
0.0187384 0.0285669 1.65786e-12 -0.0593542 0.0303492 0.0326359 -0.00360838 0.00245617 -0.000490584 
0.0280403 -0.00199871 4.15174e-05 0.0657363 -0.0180708 0.00879969 -0.122568 0.133992 -0.349733 
0.0341598 -0.00793335 4.80454e-06 -0.00985794 -0.0154266 3.21731e-07 -0.0040164 0.00589298 -0.000542071 
-0.0178225 -0.00891673 -0.0223451 0.0157037 -0.0102441 0.000424906 0.0111168 -0.0296037 -0.00085966 
-0.000858603 0.00840567 -8.17647e-07 -0.0461005 -0.0377681 0.00597014 -0.0342005 0.0225936 -5.34209e-10 
-0.0191082 -0.00193146 -0.00618887 -0.0234026 -0.00820184 0.00228517 0.00418252 -0.00110368 0.0108249 
-0.00445717 -0.0218207 0.000252129 0.00392518 0.0342312 -0.00568689 0.0340582 0.181652 -6.90364e-06 
0.0055603 0.00265525 -0.00759237 0.0106044 -0.00889243 0.00357243 -0.0139654 -0.01302 0.000998276 
-0.000672927 0.000993264 -2.31832e-05 0.00657678 -0.013254 -0.0105099 0.00287201 -0.0231951 0.0143815 
0.00606659 -0.0101436 2.9333e-13 -0.00645246 -0.0788962 -0.00373695 -0.0317473 -0.0582576 7.25987e-10 
-0.0486864 0.0170785 -0.0842605 -0.0177343 -0.0304595 0.00316224 0.0245092 0.0211951 6.97678e-10 
0.00358857 -0.00267346 1.18966e-07 -0.0211537 0.0146292 -1.0988e-09 -0.0159552 0.0679698 0.00272743 
-0.0198292 -0.0654607 -4.88499e-05 -0.0808624 0.00122747 0.00216639 -0.152154 -0.0221135 0.0192968 
-0.0493134 0.0718977 0.0351246 -0.0872604 -0.024998 -0.136033 -0.11327 0.0324953 -0.0397927 
0.0166038 -0.0591286 -0.00179983 -0.00463556 0.00278175 -0.00333517 0.0244174 -0.0144684 0.00497476 
-0.0304856 -0.0396129 -0.00191578 -0.0124518 -0.015142 -1.90532e-07 -0.0118004 -0.012862 5.4959e-07 
0.0685958 -0.0577957 -0.0748467 0.0436227 -0.167188 0.0109537 0.0127461 0.0154028 -0.00046625 
-0.0552419 0.00427123 -1.11175e-06 -0.0755579 0.00533818 -1.60507e-08 0.135864 -0.0390514 -0.0380414 
-0.0182886 -0.048395 4.92552e-05 -0.0637553 -0.00105455 -8.94492e-05 -0.0278118 -0.0346135 0.0984004 
0.0521825 -0.00419557 -0.0130063 0.0635257 0.0115399 -0.0255385 -0.023357 -0.0351874 0.000355505 
-0.0167057 -0.0204756 -0.000402047 0.00243674 0.00191354 0.00026929 -0.00111132 -0.00346973 0.000458388 
0.0060268 -0.032508 -0.00100484 -0.0792618 -0.0262853 -0.00594445 -0.0567065 -0.00508935 0.0226111 
-0.0189414 -0.0176076 -0.00205605 -0.000899916 -0.0367912 0.00257168 0.00535544 -0.0303334 0.01134 
0.00442472 -0.0517559 0.0374562 -0.0011741 0.0215821 6.47617e-05 -0.032997 0.0458959 -0.00105479 
-0.0950072 -0.0935924 -0.0403421 -0.00538049 0.100197 -0.000987994 0.0467949 0.052863 -0.00422792 
-0.0238915 -0.048079 0.0108964 0.0221317 -0.018642 0.00447666 0.00178733 0.00224483 -0.000158839 
0.00268822 -0.0165024 5.46171e-13 -0.0015395 0.0137694 0.0407418 -0.00314786 0.0719217 -0.0142985 
-0.0973874 -0.0257558 5.46171e-13 -0.0694065 -0.0133888 -7.97495e-08 -0.00510536 -0.0239544 -0.00684104 
-0.002197 -0.0122098 1.92658e-13 -0.0688898 -0.0104814 0.00306835 0.0207305 -0.0230929 0.000175085 
0.0390383 0.00992643 -0.0191023 -0.011381 -0.0281037 6.43953e-06 0.0200403 -0.0165271 -0.00106913 
-0.0470124 0.0811444 0.000118791 0.0693986 -0.0266602 -0.0023185 -0.0085249 0.0121911 0.0150485 
-0.0380873 0.0231154 -3.62563e-09 0.0947837 0.0208305 -0.00270216 0.230435 0.0904606 0.024825 
0.0601121 -0.00594985 0.0045655 -0.000718578 0.00338648 -0.000442062 -0.0785338 -0.00550634 0.0185951 
-0.171387 0.0241667 0.401904 0.0129186 -0.0283275 -1.5507e-10 0.00611594 0.0351707 -0.000705046 
0.134838 -0.0477548 -0.00360736 0.105921 -0.0825282 -0.0215947 0.0220036 -0.0562854 0.00174189 
-0.0469473 0.11886 0.000540111 -0.00942137 0.0582222 3.28118e-08 0.0898146 0.00961107 -0.00403091 
0.00410951 0.00249605 -0.0213883 0.00222996 0.00403133 0.00953079 -0.0107782 -0.0037823 -4.28915e-06 
0.0128562 -0.0327572 0.00433529 0.0374977 -0.0127656 0.0440117 -0.0349042 0.0160709 -3.4463e-07 
0.00834353 0.0293305 3.79264e-05 0.0360384 -0.0343068 -0.0169204 0.0260485 -0.0137483 -0.0339702 
0.0242134 -0.00566975 -0.0036096 -0.0650827 0.0434691 5.33944e-08 -0.0383768 0.0906566 0.00294153 
-0.0073159 0.0184088 0.000757532 0.0128512 -0.0557562 0.00502807 0.0676867 -0.000988738 -1.56245e-08 
0.0100301 0.00755265 6.35135e-05 0.00932557 -0.011334 -0.00072446 0.00383221 -0.0120856 5.94638e-05 
0.00111745 -0.0219618 0.000819353 0.0121187 -0.0016344 0.0131558 0.0348419 0.0543852 0.00374932 
0.0174623 0.0363875 0.0013602 0.0161992 -0.00994476 0.000305884 0.0370342 -0.0102664 -0.00109305 
0.0245493 0.00395026 9.4904e-11 0.0345832 -0.00426942 5.78939e-07 0.0120977 0.0147841 -0.0131861 
0.010853 -0.0311818 5.46171e-13 0.0107256 -0.0154191 5.46172e-13 0.0989157 0.120013 0.356441 
0.00440485 0.00493939 1.27363e-07 0.0314918 -0.0119948 -8.22561e-14 0.0101068 0.0376129 0.217214 
0.0119021 -0.00886431 -0.000105662 0.0163106 -0.0263528 7.28896e-05 0.00804197 0.00978729 5.19578e-05 
-0.0110388 -0.00526473 -0.00219103 0.036084 0.0181857 0.0214062 0.0161046 0.0029835 5.34627e-07 
-0.0294743 0.0579491 3.73982e-11 -0.0290368 0.0110033 -3.29234e-10 -0.0331021 -0.000817685 0.00107226 
-0.0544465 -0.155612 0.00402713 -0.0173441 -0.0314661 4.73627e-07 -0.0303268 0.00571723 -0.000172738 
-0.0336544 0.0224729 3.99313e-13 -0.0491827 0.0215285 0.00354364 0.0320003 0.0284264 0.0426006 
0.0281428 0.0302556 0.00429529 0.0094844 -0.0164884 -0.00296367 -0.00100481 0.00372621 5.27709e-13 
-0.00436076 0.0209966 0.00028596 -0.00305122 0.0210213 0.0116789 -0.0376288 -0.0931575 -0.00471347 
-0.0264564 -0.0175379 0.00503638 -0.041462 -0.00177954 -5.70366e-13 0.00271357 -0.0967689 0.203915 
-0.0311049 -0.00556319 -0.000419981 -0.0345671 0.00212095 -0.000847173 -0.0920967 -0.0571838 0.0721332 
-0.0197965 -0.0270346 -5.68303e-13 0.0368941 0.0416621 0.000529724 0.0163195 -0.00202147 -0.000279595 
0.0136553 -0.00764488 -0.0255741 0.00255476 0.0659576 -0.0144599 0.0332036 0.026226 8.86234e-06 
-0.0162383 -0.0188338 -0.00092329 0.00498916 -0.0196835 0.000369657 -0.0118912 0.0152417 -0.000564188 
0.010765 -0.00896855 0.00169181 -0.031555 -0.048332 -4.74818e-06 -0.135465 -0.0399032 0.00879787 
-0.0437142 0.00667262 -0.00082962 -0.0438878 0.0219009 0.00116189 0.0181568 0.0551941 -0.0340744 
0.0328886 0.0621312 -0.00160486 -0.00237605 0.0598499 0.0254408 -0.0499066 0.0323401 -0.0469929 
-0.0379837 0.0127243 8.75684e-05 -0.0193545 -0.0105085 0.000936459 -0.00886691 0.00386816 0.000591478 
-0.000934625 0.00515765 -8.25595e-05 -0.048957 0.000330854 0.0140376 -0.0873436 0.035661 0.034025 
-0.035644 -0.149683 0.00851525 -0.0196555 -0.000575033 -0.0305884 0.0557645 0.0364617 0.000662186 
0.020716 -0.0612377 -0.0245798 0.0316984 0.0240622 5.46172e-13 0.0842165 0.0567312 1.7731e-06 
0.0143606 -0.0189472 -0.00074993 0.00847218 -0.0689772 -0.0188804 0.00967166 0.0179879 -0.139174 
0.0111697 -0.0106544 -0.00138346 -0.132611 -0.00199807 -0.00484492 -0.0551675 -0.121955 -2.11177e-13 
-0.0118788 0.164877 0.0492987 0.166363 -0.0509068 0.0465277 0.00826359 0.0579613 -0.000320515 
0.0220702 0.0428478 -0.00183834 0.0494197 0.0767516 -0.00176583 -0.0371863 0.0959436 0.0118637 
-0.108387 0.0381847 0.0358666 -0.0338333 -0.0942379 -0.00789559 -0.00872243 -0.0502218 -0.0186271 
-0.0105284 0.00129814 0.00267561 0.00454315 0.00812418 -0.000193769 0.0320095 -0.0138815 -0.00103322 
-0.036277 0.0121786 -0.0029368 0.0363398 -0.019352 0.00065456 0.0296802 0.0630033 -0.0431935 
-0.062001 0.174594 5.83962e-05 -0.0767453 0.0588044 0.0257759 -0.189081 0.00547726 0.032928 
-0.0447405 0.0436879 0.280455 0.035645 -0.0233153 -0.0632366 0.0609682 -0.0320196 -0.00495181 