# vtk DataFile Version 4.0
Generated by LIGGGHTS
ASCII
DATASET POLYDATA
POINTS 1162 float
-0.0148025 -0.0474337 0.0811317 -0.0118254 -0.0481999 0.0811199 -0.00890137 -0.0488689 0.0811246 
-0.00406603 -0.0493905 0.0811202 -2.56503e-05 -0.0486572 0.0821136 0.00385805 -0.0488522 0.0811205 
0.00701513 -0.0490992 0.081137 0.0102519 -0.0485816 0.0811205 0.0131602 -0.0478199 0.0811184 
-0.0209459 -0.045047 0.0811206 -0.017618 -0.0463931 0.0811172 -0.0137723 -0.044586 0.0811205 
-0.00974694 -0.0447327 0.0821149 -0.00653931 -0.0469271 0.0811199 -0.00330936 -0.0464915 0.0810947 
-0.00524741 -0.0442125 0.0811188 0.000452861 -0.0447502 0.0811223 0.00342558 -0.0458356 0.0811194 
0.0105502 -0.0452378 0.0811205 0.0138855 -0.0448757 0.0811205 0.0167787 -0.0467805 0.0811197 
0.0195426 -0.0456177 0.0811175 0.0222508 -0.044271 0.0811326 -0.0283532 -0.0406826 0.0811205 
-0.0254521 -0.0426596 0.0811205 -0.0224674 -0.0421735 0.0811205 -0.0188413 -0.0428961 0.0811203 
-0.0161106 -0.0416561 0.0811208 -0.00617821 -0.0413595 0.0811198 -0.00160831 -0.0425343 0.0812296 
0.00220782 -0.0420865 0.0811205 0.00647933 -0.0434614 0.0821318 0.0131845 -0.041921 0.081119 
0.0167509 -0.0437267 0.0811205 0.0194226 -0.0423373 0.0811205 0.0250356 -0.0415804 0.0821186 
0.0288244 -0.0404898 0.0811163 -0.0308413 -0.03897 0.0811204 -0.0330877 -0.0369833 0.0811191 
-0.0279058 -0.037592 0.0811205 -0.0255667 -0.039535 0.0811205 -0.0163538 -0.0386612 0.0811205 
-0.0133957 -0.0379339 0.0811088 -0.00900009 -0.0402612 0.0811205 -0.00711597 -0.0378736 0.0811203 
-0.00399037 -0.0393249 0.0811112 -0.000152156 -0.0388594 0.0820714 0.0038653 -0.0395657 0.0810512 
0.00650721 -0.0373736 0.0811205 0.00984182 -0.0397637 0.0821179 0.0132287 -0.0378855 0.0811196 
0.0155368 -0.0400556 0.0811208 0.0183357 -0.0389643 0.0811211 0.0161412 -0.0369305 0.0813384 
0.0212318 -0.0397973 0.0811145 0.0235378 -0.0379232 0.0815045 0.0268899 -0.0381725 0.0811245 
0.0310202 -0.0373061 0.08212 -0.0350644 -0.0336577 0.0821182 -0.030051 -0.0343153 0.0821148 
-0.0261848 -0.0345728 0.0811207 -0.015428 -0.0357383 0.0811178 -0.0130712 -0.0335076 0.0811177 
-0.011137 -0.0357968 0.0810985 -0.00773219 -0.0349352 0.0811205 -0.00350728 -0.0351914 0.0821069 
0.00309474 -0.0364976 0.0811285 0.0107272 -0.0360013 0.0811176 0.0135359 -0.0349039 0.0811804 
0.0255497 -0.0345223 0.0821207 0.0296309 -0.0333577 0.0811156 0.0346576 -0.0355571 0.0823032 
-0.0383147 -0.0315602 0.0811125 -0.0273714 -0.0300889 0.0821375 -0.0234746 -0.0321965 0.0811214 
-0.0205479 -0.033101 0.0818874 -0.0207142 -0.0301989 0.0811198 -0.0170047 -0.0331917 0.0811177 
-0.0132684 -0.0305174 0.08112 -0.0100776 -0.0329066 0.0811209 -0.00660232 -0.0310813 0.082115 
0.00135771 -0.0330291 0.0821192 0.00635254 -0.0331107 0.0821122 0.0106708 -0.0330104 0.0811184 
0.0122557 -0.0299345 0.0811159 0.0195364 -0.0311829 0.0811206 0.0366711 -0.0332997 0.0812073 
0.0335367 -0.0330501 0.0811143 0.0345504 -0.0301271 0.0811205 -0.0403058 -0.0290493 0.0811203 
-0.0367303 -0.0290088 0.0811189 -0.0328645 -0.0291583 0.0821254 -0.023479 -0.0290275 0.0811206 
-0.0169462 -0.0293265 0.0821237 -0.0126576 -0.0266019 0.0821159 -0.0103627 -0.0297845 0.0811243 
-0.00837629 -0.0275374 0.0811261 -0.0053613 -0.0274111 0.0811375 -0.00194123 -0.0292776 0.0821189 
0.00441736 -0.0286053 0.0811205 0.00862606 -0.0286632 0.0821541 0.0120984 -0.0268314 0.0811141 
0.0147424 -0.0282299 0.081116 0.0195067 -0.02733 0.0822291 0.0240161 -0.0279992 0.0811355 
0.0347989 -0.026243 0.0821179 0.0383855 -0.0297238 0.0821841 0.0414643 -0.0274131 0.0811148 
-0.0439124 -0.0230633 0.0811205 -0.0422103 -0.0261216 0.0811205 -0.0405346 -0.0236202 0.0811141 
-0.039147 -0.0262857 0.0811217 -0.035479 -0.0262844 0.0811206 -0.035153 -0.0231465 0.0811453 
-0.0326459 -0.0252827 0.0811207 -0.0301071 -0.0228406 0.0811193 -0.0292665 -0.0257661 0.0811193 
-0.0252248 -0.0255673 0.0821178 -0.0207807 -0.0261561 0.0811205 -0.0167322 -0.0253234 0.0813036 
-0.0114473 -0.0229235 0.0811189 -0.00753149 -0.0246515 0.0811201 -0.0048583 -0.0230401 0.0811134 
0.00274967 -0.0258587 0.0811407 0.00549917 -0.0230202 0.0811212 0.0101979 -0.0234798 0.0821409 
0.0154998 -0.0242955 0.0813277 0.0243234 -0.0246334 0.0813483 0.0302291 -0.0242931 0.0811196 
0.0388638 -0.025763 0.0811852 0.0429771 -0.0248219 0.0811205 -0.0452651 -0.0203845 0.0811204 
-0.0411447 -0.0197611 0.0821162 -0.0379855 -0.0220535 0.0811255 -0.0325937 -0.0210661 0.0811205 
-0.0266737 -0.02108 0.0812986 -0.0231322 -0.0223144 0.081116 -0.0201599 -0.0219085 0.0811196 
-0.0171787 -0.0221741 0.0813306 -0.0137127 -0.0209566 0.0811199 -0.00965468 -0.0204978 0.0811424 
-0.00664721 -0.0204834 0.081239 0.00079702 -0.0224874 0.0820444 0.00716455 -0.0205737 0.0820222 
0.0138709 -0.0195968 0.0811205 0.0191937 -0.0225809 0.0814252 0.0239689 -0.0206018 0.0811183 
0.0287399 -0.0206808 0.0821315 0.0326364 -0.0206369 0.0811262 0.0364516 -0.0213178 0.0821184 
0.0402406 -0.0222644 0.0811203 0.0444465 -0.0222047 0.0811185 0.0456086 -0.0194326 0.0811205 
-0.0457395 -0.0165406 0.0821177 -0.0394204 -0.0162835 0.0811205 -0.0359332 -0.0188132 0.0822401 
-0.0307153 -0.0182909 0.0811205 -0.0267997 -0.0179928 0.0811303 -0.0240608 -0.0192133 0.0811191 
-0.0236907 -0.0160526 0.0811203 -0.0204829 -0.0189285 0.0811209 -0.0206901 -0.0159382 0.0811209 
-0.0179994 -0.0172495 0.0811149 -0.0152311 -0.0183764 0.0812892 -0.0119406 -0.018531 0.0811202 
-0.00907142 -0.0175589 0.08113 -0.00597719 -0.017407 0.0811202 -0.0029756 -0.0181279 0.0813397 
0.00241353 -0.0185699 0.081135 0.00522324 -0.0181475 0.0820686 0.0035926 -0.0157645 0.0811187 
0.00731161 -0.0162316 0.0811213 0.011073 -0.0164854 0.081445 0.0161248 -0.0163959 0.0820103 
0.0192103 -0.0168729 0.0812885 0.0222992 -0.0176242 0.0818952 0.0256211 -0.0180147 0.0811459 
0.028313 -0.0166947 0.0811196 0.0312271 -0.0174838 0.0811206 0.0344355 -0.017896 0.0812935 
0.0366066 -0.0158266 0.0811185 0.0387373 -0.0181547 0.0811203 0.042646 -0.0188115 0.0811205 
0.0467952 -0.0166622 0.0811211 -0.0419166 -0.0133201 0.0821139 -0.0380222 -0.0135823 0.0811205 
-0.0353181 -0.0149152 0.0812777 -0.032383 -0.0156955 0.0811205 -0.0272362 -0.0146752 0.0811205 
-0.0222464 -0.0135606 0.0820605 -0.0173874 -0.0134332 0.0821187 -0.0131267 -0.0145345 0.0812288 
-0.00854931 -0.0146059 0.0811128 0.000646752 -0.0155739 0.0818445 0.00551035 -0.0134291 0.0811291 
0.00934265 -0.0127979 0.0821184 0.0137985 -0.0140898 0.0812394 0.0172803 -0.0130543 0.0811123 
0.0214942 -0.0136908 0.0821171 0.0255205 -0.0149804 0.0811205 0.0321995 -0.014071 0.0811181 
0.0349701 -0.0129386 0.0811171 0.0379557 -0.0131067 0.0811189 0.0412238 -0.0151743 0.0821183 
0.0450348 -0.0142161 0.0811204 0.0474682 -0.0124577 0.0811193 -0.0466216 -0.011488 0.0821178 
-0.0373974 -0.0104649 0.0811202 -0.0342611 -0.0119903 0.0811203 -0.0303952 -0.0121859 0.0821168 
-0.0246734 -0.0120786 0.0811198 -0.0164349 -0.00935964 0.0811205 -0.0139557 -0.0116014 0.0811202 
-0.0124208 -0.00901004 0.0811204 -0.00988958 -0.0117359 0.0811202 -0.00592548 -0.0117476 0.0821183 
-0.0020156 -0.012252 0.0811945 -0.000762714 -0.00950838 0.081271 0.00212404 -0.010496 0.0810997 
0.00600359 -0.0102227 0.0811294 0.0137145 -0.0101807 0.0821171 0.0258541 -0.0111171 0.0821167 
0.0296827 -0.0104907 0.0811193 0.0334246 -0.00947327 0.082362 0.0376556 -0.00998078 0.0811148 
0.0404044 -0.011383 0.0811199 0.0441571 -0.010443 0.0821143 0.0487374 -0.00974042 0.0811377 
-0.0489484 -0.00830355 0.0811323 -0.0460809 -0.00745096 0.0811137 -0.0423328 -0.00834365 0.0821636 
-0.0376708 -0.00738747 0.0811205 -0.034086 -0.00606495 0.0811192 -0.031325 -0.00781905 0.0811183 
-0.0282492 -0.00655914 0.081134 -0.0241559 -0.00824386 0.0821165 -0.0144913 -0.00573744 0.082119 
-0.00879922 -0.0076382 0.0821173 -0.00492257 -0.00795371 0.0811205 -0.00112743 -0.00556256 0.0821134 
0.00486497 -0.00746332 0.0812749 0.0108039 -0.00762132 0.0811204 0.0147499 -0.00611038 0.0811205 
0.0228897 -0.00703437 0.0821185 0.0284031 -0.00680119 0.0821522 0.039435 -0.00744636 0.0811204 
0.0430429 -0.00669942 0.0811235 0.0491588 -0.0066666 0.0811206 -0.0493862 -0.00530591 0.0811205 
-0.0496087 -0.00190739 0.0811163 -0.0469838 -0.00349921 0.08112 -0.0443472 -0.00492827 0.0811207 
-0.0445115 -0.00180425 0.0811203 -0.0397822 -0.0049985 0.08112 -0.0336936 -0.00305392 0.0811147 
-0.0284698 -0.00349722 0.0811204 -0.0257153 -0.00468822 0.0811471 -0.0212074 -0.00420581 0.0821168 
-0.0173101 -0.003072 0.0811208 -0.0104041 -0.00349312 0.0813676 -0.00728299 -0.00330288 0.0812446 
-0.00427755 -0.00330599 0.0811206 0.00701533 -0.00343054 0.0811165 0.0119335 -0.00482011 0.0811183 
0.00977224 -0.00231816 0.0816817 0.0130273 -0.00216604 0.0819712 0.0182937 -0.00457572 0.0821888 
0.0254604 -0.00274534 0.0821195 0.0308349 -0.00373149 0.0812357 0.0338242 -0.00346988 0.0811211 
0.0366676 -0.00221064 0.0811163 0.0408772 -0.00348656 0.0821196 0.0458431 -0.00398582 0.0822391 
0.0496231 -0.00306401 0.0811221 -0.0496596 0.00108792 0.08112 -0.0468226 0.000106027 0.0811184 
-0.0414882 -0.00174792 0.0811187 -0.0402486 0.00098089 0.0811089 -0.0384799 -0.0014698 0.0811203 
-0.0333852 0.000801325 0.0821187 -0.0297204 -0.000707155 0.0811205 -0.0266561 -0.00110973 0.08112 
-0.0233241 -0.000879938 0.08112 -0.0163651 8.99511e-05 0.0811205 -0.0122261 0.000359157 0.0821223 
-0.00842154 -0.000367748 0.0811205 -0.00542488 -0.000514197 0.0811212 -0.00239908 3.49825e-06 0.0811171 
0.00141856 0.000359435 0.0822404 0.00518538 -0.000590109 0.0811205 0.0078777 0.00142116 0.0811195 
0.0108892 0.00164368 0.0811203 0.0163491 4.72413e-05 0.0821174 0.0206588 -0.00152104 0.0811201 
0.0296562 -0.000981972 0.0815417 0.0322425 0.000741058 0.0811205 0.0353809 0.00111578 0.0811206 
0.0383303 0.000286725 0.0811206 0.0413654 0.000354646 0.0811203 0.0444404 -0.000259841 0.0813091 
0.048606 0.000673973 0.0821298 -0.0447409 0.00477877 0.0811205 -0.0429816 0.00234748 0.0811205 
-0.0400771 0.00400631 0.0811181 -0.0375551 0.00228073 0.0811269 -0.0279115 0.00311327 0.0821255 
[...]
POINT_DATA 1162
FIELD FieldData 7
id 1 1162 int
96 32 299 287 171 90 240 46 95 
582 290 199 511 189 390 300 59 70 
12 394 18 396 98 457 76 6 262 
39 624 137 166 211 87 213 19 272 
305 153 178 239 431 250 204 750 342 
597 371 366 515 423 364 45 375 592 
33 50 444 92 94 2 316 77 407 
249 207 208 541 293 650 258 256 277 
113 310 280 547 613 542 252 531 220 
862 849 634 549 21 238 51 167 173 
278 222 468 412 260 548 672 497 182 
580 296 35 743 158 165 498 184 63 
274 383 108 428 84 202 164 286 338 
259 607 161 337 690 429 421 13 234 
354 426 596 110 187 48 132 263 352 
392 496 304 506 556 517 870 346 647 
180 186 478 157 74 221 179 216 357 
144 191 4 279 218 329 395 36 351 
264 193 648 101 480 662 318 237 291 
595 492 229 495 600 353 626 463 69 
725 217 86 128 134 115 330 622 314 
724 271 151 138 416 699 489 646 606 
628 702 377 493 255 67 102 10 185 
740 194 631 331 738 546 507 38 30 
554 491 621 139 834 43 11 66 174 
454 372 265 154 168 236 88 349 369 
543 385 333 53 275 400 686 883 114 
422 618 505 494 192 58 368 356 545 
148 85 815 381 64 146 676 469 780 
336 637 188 636 230 680 459 535 312 
355 160 334 288 149 253 560 116 833 
233 609 532 62 729 247 175 825 557 
695 276 528 44 387 529 567 203 324 
623 241 315 130 124 365 325 89 120 
9 670 641 867 162 323 367 852 111 
691 425 784 91 602 658 350 145 105 
306 610 447 402 855 756 769 93 289 
684 430 640 707 573 735 518 257 201 
143 49 209 107 83 405 141 794 22 
451 55 242 681 437 885 432 732 728 
659 710 343 42 563 65 268 382 210 
455 159 26 483 696 465 674 711 840 
301 502 715 409 321 155 467 399 227 
248 339 61 235 470 225 126 513 817 
625 651 703 655 839 587 550 503 788 
326 471 14 448 420 393 267 302 466 
57 5 441 453 633 716 717 481 224 
534 440 599 555 687 446 435 652 638 
231 122 434 327 29 1 530 415 270 
726 581 521 436 413 516 598 456 389 
223 309 298 219 508 245 348 373 574 
121 417 20 292 370 127 524 317 533 
361 536 635 564 99 439 477 140 41 
47 25 34 404 8 376 586 629 106 
579 781 196 23 205 200 78 442 135 
152 176 571 117 443 689 246 488 150 
380 799 340 60 136 344 72 198 129 
103 244 232 214 131 133 71 378 593 
254 419 27 147 37 75 177 118 170 
285 484 461 52 112 81 7 142 391 
458 414 163 215 335 212 445 109 56 
16 281 190 226 123 243 251 741 479 
79 303 358 228 824 766 24 619 462 
704 816 757 682 758 845 645 266 119 
786 746 688 969 831 269 614 675 408 
273 894 970 649 665 398 362 523 830 
544 568 723 677 539 820 345 565 359 
620 406 553 611 826 827 433 842 850 
17 386 709 798 283 779 562 522 660 
760 100 736 868 997 916 742 473 608 
603 730 841 1004 308 795 971 197 813 
332 297 576 594 692 360 778 943 54 
384 763 449 811 551 464 294 472 952 
899 617 80 476 909 363 612 876 552 
977 706 774 685 982 946 693 935 374 
719 764 601 908 588 527 800 837 169 
1006 630 844 790 490 773 438 747 806 
319 801 927 195 889 838 671 183 403 
755 792 733 995 519 540 878 172 947 
866 485 525 520 261 561 322 879 942 
901 956 934 1002 857 104 575 809 805 
954 950 829 797 767 615 510 727 475 
739 871 28 643 890 931 97 15 863 
379 859 679 509 1007 125 765 865 311 
206 605 822 313 749 802 698 656 990 
538 753 3 832 819 762 843 583 341 
920 591 589 572 654 888 745 722 181 
941 653 734 955 818 783 697 700 558 
782 712 82 776 714 864 906 737 789 
347 793 835 632 411 504 460 68 397 
578 669 804 40 500 424 585 807 754 
487 892 761 836 73 282 569 891 664 
570 701 791 427 499 803 482 388 559 
663 904 328 683 627 452 307 31 639 
661 486 775 787 744 667 846 900 972 
708 903 858 752 848 897 642 694 989 
759 853 958 966 911 295 914 960 1021 
877 590 917 922 992 721 998 1023 905 
953 1015 983 1010 1009 713 772 999 915 
912 968 967 874 925 861 919 156 814 
823 996 566 514 910 751 930 957 980 
873 981 657 1005 893 1003 965 512 924 
887 777 851 810 974 770 994 902 918 
921 748 501 604 1001 1008 812 678 929 
975 856 896 926 731 933 821 945 410 
860 884 284 949 907 963 418 450 872 
939 847 978 986 768 1000 705 796 474 
976 938 808 668 913 771 401 320 959 
932 673 616 991 526 666 985 718 875 
1014 895 944 882 936 1017 720 961 937 
979 1013 964 940 993 854 923 577 828 
869 537 973 898 1020 1019 984 881 1018 
962 880 785 1011 987 951 928 584 1012 
988 644 1035 1016 1022 948 1025 1030 1029 
1033 1028 1036 1026 1032 1031 1034 1027 1024 
886 1043 1048 1045 1046 1047 1038 1040 1039 
1041 1044 1042 1037 1049 1060 1058 1054 1056 
1061 1059 1055 1052 1051 1050 1053 1057 1062 
1069 1064 1063 1070 1073 1066 1072 1068 1067 
1065 1071 1081 1085 1082 1076 1080 1074 1083 
1079 1077 1084 1078 1095 1075 1086 1087 1093 
1092 1097 1089 1091 1088 1096 1098 1094 1090 
1106 1103 1111 1101 1105 1108 1104 1110 1107 
1099 1109 1102 1100 1123 1118 1114 1113 1121 
1117 1122 1112 1116 1120 1115 1119 1134 1133 
1132 1124 1126 1130 1129 1136 1131 1135 1125 
1145 1142 1127 1128 1148 1149 1139 1144 1138 
1137 1147 1141 1143 1146 1162 1155 1156 1160 
1140 1153 1152 1161 1157 1150 1151 1159 1158 
1154 
type 1 1162 int
1 1 1 1 1 1 1 1 1 
1 1 1 1 1 1 1 1 1 
1 1 1 1 1 1 1 1 1 
1 1 1 1 1 1 1 1 1 
1 1 1 1 1 1 1 1 1 
1 1 1 1 1 1 1 1 1 
1 1 1 1 1 1 1 1 1 
1 1 1 1 1 1 1 1 1 
1 1 1 1 1 1 1 1 1 
1 1 1 1 1 1 1 1 1 
1 1 1 1 1 1 1 1 1 
1 1 1 1 1 1 1 1 1 
1 1 1 1 1 1 1 1 1 
1 1 1 1 1 1 1 1 1 
1 1 1 1 1 1 1 1 1 
1 1 1 1 1 1 1 1 1 
1 1 1 1 1 1 1 1 1 
1 1 1 1 1 1 1 1 1 
1 1 1 1 1 1 1 1 1 
1 1 1 1 1 1 1 1 1 
1 1 1 1 1 1 1 1 1 
1 1 1 1 1 1 1 1 1 
1 1 1 1 1 1 1 1 1 
1 1 1 1 1 1 1 1 1 
1 1 1 1 1 1 1 1 1 
1 1 1 1 1 1 1 1 1 
1 1 1 1 1 1 1 1 1 
1 1 1 1 1 1 1 1 1 
1 1 1 1 1 1 1 1 1 
1 1 1 1 1 1 1 1 1 
1 1 1 1 1 1 1 1 1 
1 1 1 1 1 1 1 1 1 
1 1 1 1 1 1 1 1 1 
1 1 1 1 1 1 1 1 1 
1 1 1 1 1 1 1 1 1 
1 1 1 1 1 1 1 1 1 
1 1 1 1 1 1 1 1 1 
1 1 1 1 1 1 1 1 1 
1 1 1 1 1 1 1 1 1 
1 1 1 1 1 1 1 1 1 
1 1 1 1 1 1 1 1 1 
1 1 1 1 1 1 1 1 1 
1 1 1 1 1 1 1 1 1 
1 1 1 1 1 1 1 1 1 
1 1 1 1 1 1 1 1 1 
1 1 1 1 1 1 1 1 1 
1 1 1 1 1 1 1 1 1 
1 1 1 1 1 1 1 1 1 
1 1 1 1 1 1 1 1 1 
1 1 1 1 1 1 1 1 1 
1 1 1 1 1 1 1 1 1 
1 1 1 1 1 1 1 1 1 
1 1 1 1 1 1 1 1 1 
1 1 1 1 1 1 1 1 1 
1 1 1 1 1 1 1 1 1 
1 1 1 1 1 1 1 1 1 
1 1 1 1 1 1 1 1 1 
1 1 1 1 1 1 1 1 1 
1 1 1 1 1 1 1 1 1 
1 1 1 1 1 1 1 1 1 
1 1 1 1 1 1 1 1 1 
1 1 1 1 1 1 1 1 1 
1 1 1 1 1 1 1 1 1 
1 1 1 1 1 1 1 1 1 
1 1 1 1 1 1 1 1 1 
1 1 1 1 1 1 1 1 1 
1 1 1 1 1 1 1 1 1 
1 1 1 1 1 1 1 1 1 
1 1 1 1 1 1 1 1 1 
1 1 1 1 1 1 1 1 1 
1 1 1 1 1 1 1 1 1 
1 1 1 1 1 1 1 1 1 
1 1 1 1 1 1 1 1 1 
1 1 1 1 1 1 1 1 1 
1 1 1 1 1 1 1 1 1 
1 1 1 1 1 1 1 1 1 
1 1 1 1 1 1 1 1 1 
1 1 1 1 1 1 1 1 1 
1 1 1 1 1 1 1 1 1 
1 1 1 1 1 1 1 1 1 
1 1 1 1 1 1 1 1 1 
1 1 1 1 1 1 1 1 1 
1 1 1 1 1 1 1 1 1 
1 1 1 1 1 1 1 1 1 
1 1 1 1 1 1 1 1 1 
1 1 1 1 1 1 1 1 1 
1 1 1 1 1 1 1 1 1 
1 1 1 1 1 1 1 1 1 
1 1 1 1 1 1 1 1 1 
1 1 1 1 1 1 1 1 1 
1 1 1 1 1 1 1 1 1 
1 1 1 1 1 1 1 1 1 
1 1 1 1 1 1 1 1 1 
1 1 1 1 1 1 1 1 1 
1 1 1 1 1 1 1 1 1 
1 1 1 1 1 1 1 1 1 
1 1 1 1 1 1 1 1 1 
1 1 1 1 1 1 1 1 1 
1 1 1 1 1 1 1 1 1 
1 1 1 1 1 1 1 1 1 
1 1 1 1 1 1 1 1 1 
1 1 1 1 1 1 1 1 1 
1 1 1 1 1 1 1 1 1 
1 1 1 1 1 1 1 1 1 
1 1 1 1 1 1 1 1 1 
1 1 1 1 1 1 1 1 1 
1 1 1 1 1 1 1 1 1 
1 1 1 1 1 1 1 1 1 
1 1 1 1 1 1 1 1 1 
1 1 1 1 1 1 1 1 1 
1 1 1 1 1 1 1 1 1 
1 1 1 1 1 1 1 1 1 
1 1 1 1 1 1 1 1 1 
1 1 1 1 1 1 1 1 1 
1 1 1 1 1 1 1 1 1 
1 1 1 1 1 1 1 1 1 
1 1 1 1 1 1 1 1 1 
1 1 1 1 1 1 1 1 1 
1 1 1 1 1 1 1 1 1 
1 1 1 1 1 1 1 1 1 
1 1 1 1 1 1 1 1 1 
1 1 1 1 1 1 1 1 1 
1 1 1 1 1 1 1 1 1 
1 1 1 1 1 1 1 1 1 
1 1 1 1 1 1 1 1 1 
1 1 1 1 1 1 1 1 1 
1 1 1 1 1 1 1 1 1 
1 1 1 1 1 1 1 1 1 
1 1 1 1 1 1 1 1 1 
1 
i 3 1162 int
0 0 0 0 0 0 0 0 0 
0 0 0 0 0 0 0 0 0 
0 0 0 0 0 0 0 0 0 
0 0 0 0 0 0 0 0 0 
0 0 0 0 0 0 0 0 0 
0 0 0 0 0 0 0 0 0 
0 0 0 0 0 0 0 0 0 
0 0 0 0 0 0 0 0 0 
0 0 0 0 0 0 0 0 0 
0 0 0 0 0 0 0 0 0 
0 0 0 0 0 0 0 0 0 
0 0 0 0 0 0 0 0 0 
0 0 0 0 0 0 0 0 0 
0 0 0 0 0 0 0 0 0 
0 0 0 0 0 0 0 0 0 
0 0 0 0 0 0 0 0 0 
0 0 0 0 0 0 0 0 0 
0 0 0 0 0 0 0 0 0 
0 0 0 0 0 0 0 0 0 
0 0 0 0 0 0 0 0 0 
0 0 0 0 0 0 0 0 0 
0 0 0 0 0 0 0 0 0 
0 0 0 0 0 0 0 0 0 
0 0 0 0 0 0 0 0 0 
0 0 0 0 0 0 0 0 0 
0 0 0 0 0 0 0 0 0 
0 0 0 0 0 0 0 0 0 
0 0 0 0 0 0 0 0 0 
0 0 0 0 0 0 0 0 0 
0 0 0 0 0 0 0 0 0 
0 0 0 0 0 0 0 0 0 
0 0 0 0 0 0 0 0 0 
0 0 0 0 0 0 0 0 0 
0 0 0 0 0 0 0 0 0 
0 0 0 0 0 0 0 0 0 
0 0 0 0 0 0 0 0 0 
0 0 0 0 0 0 0 0 0 
0 0 0 0 0 0 0 0 0 
0 0 0 0 0 0 0 0 0 
0 0 0 0 0 0 0 0 0 
0 0 0 0 0 0 0 0 0 
0 0 0 0 0 0 0 0 0 
0 0 0 0 0 0 0 0 0 
0 0 0 0 0 0 0 0 0 
0 0 0 0 0 0 0 0 0 
0 0 0 0 0 0 0 0 0 
0 0 0 0 0 0 0 0 0 
0 0 0 0 0 0 0 0 0 
0 0 0 0 0 0 0 0 0 
0 0 0 0 0 0 0 0 0 
0 0 0 0 0 0 0 0 0 
0 0 0 0 0 0 0 0 0 
0 0 0 0 0 0 0 0 0 
0 0 0 0 0 0 0 0 0 
0 0 0 0 0 0 0 0 0 
0 0 0 0 0 0 0 0 0 
0 0 0 0 0 0 0 0 0 
0 0 0 0 0 0 0 0 0 
0 0 0 0 0 0 0 0 0 
0 0 0 0 0 0 0 0 0 
0 0 0 0 0 0 0 0 0 
0 0 0 0 0 0 0 0 0 
0 0 0 0 0 0 0 0 0 
0 0 0 0 0 0 0 0 0 
0 0 0 0 0 0 0 0 0 
0 0 0 0 0 0 0 0 0 
0 0 0 0 0 0 0 0 0 
0 0 0 0 0 0 0 0 0 
0 0 0 0 0 0 0 0 0 
0 0 0 0 0 0 0 0 0 
0 0 0 0 0 0 0 0 0 
0 0 0 0 0 0 0 0 0 
0 0 0 0 0 0 0 0 0 
0 0 0 0 0 0 0 0 0 
0 0 0 0 0 0 0 0 0 
0 0 0 0 0 0 0 0 0 
0 0 0 0 0 0 0 0 0 
0 0 0 0 0 0 0 0 0 
0 0 0 0 0 0 0 0 0 
0 0 0 0 0 0 0 0 0 
0 0 0 0 0 0 0 0 0 
0 0 0 0 0 0 0 0 0 
0 0 0 0 0 0 0 0 0 
0 0 0 0 0 0 0 0 0 
0 0 0 0 0 0 0 0 0 
0 0 0 0 0 0 0 0 0 
0 0 0 0 0 0 0 0 0 
0 0 0 0 0 0 0 0 0 
0 0 0 0 0 0 0 0 0 
0 0 0 0 0 0 0 0 0 
0 0 0 0 0 0 0 0 0 
0 0 0 0 0 0 0 0 0 
0 0 0 0 0 0 0 0 0 
0 0 0 0 0 0 0 0 0 
0 0 0 0 0 0 0 0 0 
0 0 0 0 0 0 0 0 0 
0 0 0 0 0 0 0 0 0 
0 0 0 0 0 0 0 0 0 
0 0 0 0 0 0 0 0 0 
0 0 0 0 0 0 0 0 0 
0 0 0 0 0 0 0 0 0 
0 0 0 0 0 0 0 0 0 
0 0 0 0 0 0 0 0 0 
0 0 0 0 0 0 0 0 0 
0 0 0 0 0 0 0 0 0 
0 0 0 0 0 0 0 0 0 
0 0 0 0 0 0 0 0 0 
0 0 0 0 0 0 0 0 0 
0 0 0 0 0 0 0 0 0 
0 0 0 0 0 0 0 0 0 
0 0 0 0 0 0 0 0 0 
0 0 0 0 0 0 0 0 0 
0 0 0 0 0 0 0 0 0 
0 0 0 0 0 0 0 0 0 
0 0 0 0 0 0 0 0 0 
0 0 0 0 0 0 0 0 0 
0 0 0 0 0 0 0 0 0 
0 0 0 0 0 0 0 0 0 
0 0 0 0 0 0 0 0 0 
0 0 0 0 0 0 0 0 0 
0 0 0 0 0 0 0 0 0 
0 0 0 0 0 0 0 0 0 
0 0 0 0 0 0 0 0 0 
0 0 0 0 0 0 0 0 0 
0 0 0 0 0 0 0 0 0 
0 0 0 0 0 0 0 0 0 
0 0 0 0 0 0 0 0 0 
0 0 0 0 0 0 0 0 0 
0 0 0 0 0 0 0 0 0 
0 0 0 0 0 0 0 0 0 
0 0 0 0 0 0 0 0 0 
0 0 0 0 0 0 0 0 0 
0 0 0 0 0 0 0 0 0 
0 0 0 0 0 0 0 0 0 
0 0 0 0 0 0 0 0 0 
0 0 0 0 0 0 0 0 0 
0 0 0 0 0 0 0 0 0 
0 0 0 0 0 0 0 0 0 
0 0 0 0 0 0 0 0 0 
0 0 0 0 0 0 0 0 0 
0 0 0 0 0 0 0 0 0 
0 0 0 0 0 0 0 0 0 
0 0 0 0 0 0 0 0 0 
0 0 0 0 0 0 0 0 0 
0 0 0 0 0 0 0 0 0 
0 0 0 0 0 0 0 0 0 
0 0 0 0 0 0 0 0 0 
0 0 0 0 0 0 0 0 0 
0 0 0 0 0 0 0 0 0 
0 0 0 0 0 0 0 0 0 
0 0 0 0 0 0 0 0 0 
0 0 0 0 0 0 0 0 0 
0 0 0 0 0 0 0 0 0 
0 0 0 0 0 0 0 0 0 
0 0 0 0 0 0 0 0 0 
0 0 0 0 0 0 0 0 0 
0 0 0 0 0 0 0 0 0 
0 0 0 0 0 0 0 0 0 
0 0 0 0 0 0 0 0 0 
0 0 0 0 0 0 0 0 0 
0 0 0 0 0 0 0 0 0 
0 0 0 0 0 0 0 0 0 
0 0 0 0 0 0 0 0 0 
0 0 0 0 0 0 0 0 0 
0 0 0 0 0 0 0 0 0 
0 0 0 0 0 0 0 0 0 
0 0 0 0 0 0 0 0 0 
0 0 0 0 0 0 0 0 0 
0 0 0 0 0 0 0 0 0 
0 0 0 0 0 0 0 0 0 
0 0 0 0 0 0 0 0 0 
0 0 0 0 0 0 0 0 0 
0 0 0 0 0 0 0 0 0 
0 0 0 0 0 0 0 0 0 
0 0 0 0 0 0 0 0 0 
0 0 0 0 0 0 0 0 0 
0 0 0 0 0 0 0 0 0 
0 0 0 0 0 0 0 0 0 
0 0 0 0 0 0 0 0 0 
0 0 0 0 0 0 0 0 0 
0 0 0 0 0 0 0 0 0 
0 0 0 0 0 0 0 0 0 
0 0 0 0 0 0 0 0 0 
0 0 0 0 0 0 0 0 0 
0 0 0 0 0 0 0 0 0 
0 0 0 0 0 0 0 0 0 
0 0 0 0 0 0 0 0 0 
0 0 0 0 0 0 0 0 0 
0 0 0 0 0 0 0 0 0 
0 0 0 0 0 0 0 0 0 
0 0 0 0 0 0 0 0 0 
0 0 0 0 0 0 0 0 0 
0 0 0 0 0 0 0 0 0 
0 0 0 0 0 0 0 0 0 
0 0 0 0 0 0 0 0 0 
0 0 0 0 0 0 0 0 0 
0 0 0 0 0 0 0 0 0 
0 0 0 0 0 0 0 0 0 
0 0 0 0 0 0 0 0 0 
0 0 0 0 0 0 0 0 0 
0 0 0 0 0 0 0 0 0 
0 0 0 0 0 0 0 0 0 
0 0 0 0 0 0 0 0 0 
0 0 0 0 0 0 0 0 0 
0 0 0 0 0 0 0 0 0 
0 0 0 0 0 0 0 0 0 
0 0 0 0 0 0 0 0 0 
0 0 0 0 0 0 0 0 0 
0 0 0 0 0 0 0 0 0 
0 0 0 0 0 0 0 0 0 
0 0 0 0 0 0 0 0 0 
0 0 0 0 0 0 0 0 0 
0 0 0 0 0 0 0 0 0 
0 0 0 0 0 0 0 0 0 
0 0 0 0 0 0 0 0 0 
0 0 0 0 0 0 0 0 0 
0 0 0 0 0 0 0 0 0 
0 0 0 0 0 0 0 0 0 
0 0 0 0 0 0 0 0 0 
0 0 0 0 0 0 0 0 0 
0 0 0 0 0 0 0 0 0 
0 0 0 0 0 0 0 0 0 
0 0 0 0 0 0 0 0 0 
0 0 0 0 0 0 0 0 0 
0 0 0 0 0 0 0 0 0 
0 0 0 0 0 0 0 0 0 
0 0 0 0 0 0 0 0 0 
0 0 0 0 0 0 0 0 0 
0 0 0 0 0 0 0 0 0 
0 0 0 0 0 0 0 0 0 
0 0 0 0 0 0 0 0 0 
0 0 0 0 0 0 0 0 0 
0 0 0 0 0 0 0 0 0 
0 0 0 0 0 0 0 0 0 
0 0 0 0 0 0 0 0 0 
0 0 0 0 0 0 0 0 0 
0 0 0 0 0 0 0 0 0 
0 0 0 0 0 0 0 0 0 
0 0 0 0 0 0 0 0 0 
0 0 0 0 0 0 0 0 0 
0 0 0 0 0 0 0 0 0 
0 0 0 0 0 0 0 0 0 
0 0 0 0 0 0 0 0 0 
0 0 0 0 0 0 0 0 0 
0 0 0 0 0 0 0 0 0 
0 0 0 0 0 0 0 0 0 
0 0 0 0 0 0 0 0 0 
0 0 0 0 0 0 0 0 0 
0 0 0 0 0 0 0 0 0 
0 0 0 0 0 0 0 0 0 
0 0 0 0 0 0 0 0 0 
0 0 0 0 0 0 0 0 0 
0 0 0 0 0 0 0 0 0 
0 0 0 0 0 0 0 0 0 
0 0 0 0 0 0 0 0 0 
0 0 0 0 0 0 0 0 0 
0 0 0 0 0 0 0 0 0 
0 0 0 0 0 0 0 0 0 
0 0 0 0 0 0 0 0 0 
0 0 0 0 0 0 0 0 0 
0 0 0 0 0 0 0 0 0 
0 0 0 0 0 0 0 0 0 
0 0 0 0 0 0 0 0 0 
0 0 0 0 0 0 0 0 0 
0 0 0 0 0 0 0 0 0 
0 0 0 0 0 0 0 0 0 
0 0 0 0 0 0 0 0 0 
0 0 0 0 0 0 0 0 0 
0 0 0 0 0 0 0 0 0 
0 0 0 0 0 0 0 0 0 
0 0 0 0 0 0 0 0 0 
0 0 0 0 0 0 0 0 0 
0 0 0 0 0 0 0 0 0 
0 0 0 0 0 0 0 0 0 
0 0 0 0 0 0 0 0 0 
0 0 0 0 0 0 0 0 0 
0 0 0 0 0 0 0 0 0 
0 0 0 0 0 0 0 0 0 
0 0 0 0 0 0 0 0 0 
0 0 0 0 0 0 0 0 0 
0 0 0 0 0 0 0 0 0 
0 0 0 0 0 0 0 0 0 
0 0 0 0 0 0 0 0 0 
0 0 0 0 0 0 0 0 0 
0 0 0 0 0 0 0 0 0 
0 0 0 0 0 0 0 0 0 
0 0 0 0 0 0 0 0 0 
0 0 0 0 0 0 0 0 0 
0 0 0 0 0 0 0 0 0 
0 0 0 0 0 0 0 0 0 
0 0 0 0 0 0 0 0 0 
0 0 0 0 0 0 0 0 0 
0 0 0 0 0 0 0 0 0 
0 0 0 0 0 0 0 0 0 
0 0 0 0 0 0 0 0 0 
0 0 0 0 0 0 0 0 0 
0 0 0 0 0 0 0 0 0 
0 0 0 0 0 0 0 0 0 
0 0 0 0 0 0 0 0 0 
0 0 0 0 0 0 0 0 0 
0 0 0 0 0 0 0 0 0 
0 0 0 0 0 0 0 0 0 
0 0 0 0 0 0 0 0 0 
0 0 0 0 0 0 0 0 0 
0 0 0 0 0 0 0 0 0 
0 0 0 0 0 0 0 0 0 
0 0 0 0 0 0 0 0 0 
0 0 0 0 0 0 0 0 0 
0 0 0 0 0 0 0 0 0 
0 0 0 0 0 0 0 0 0 
0 0 0 0 0 0 0 0 0 
0 0 0 0 0 0 0 0 0 
0 0 0 0 0 0 0 0 0 
0 0 0 0 0 0 0 0 0 
0 0 0 0 0 0 0 0 0 
0 0 0 0 0 0 0 0 0 
0 0 0 0 0 0 0 0 0 
0 0 0 0 0 0 0 0 0 
0 0 0 0 0 0 0 0 0 
0 0 0 0 0 0 0 0 0 
0 0 0 0 0 0 0 0 0 
0 0 0 0 0 0 0 0 0 
0 0 0 0 0 0 0 0 0 
0 0 0 0 0 0 0 0 0 
0 0 0 0 0 0 0 0 0 
0 0 0 0 0 0 0 0 0 
0 0 0 0 0 0 0 0 0 
0 0 0 0 0 0 0 0 0 
0 0 0 0 0 0 0 0 0 
0 0 0 0 0 0 0 0 0 
0 0 0 0 0 0 0 0 0 
0 0 0 0 0 0 0 0 0 
0 0 0 0 0 0 0 0 0 
0 0 0 0 0 0 0 0 0 
0 0 0 0 0 0 0 0 0 
0 0 0 0 0 0 0 0 0 
0 0 0 0 0 0 0 0 0 
0 0 0 0 0 0 0 0 0 
0 0 0 0 0 0 0 0 0 
0 0 0 0 0 0 0 0 0 
0 0 0 0 0 0 0 0 0 
0 0 0 0 0 0 0 0 0 
0 0 0 0 0 0 0 0 0 
0 0 0 0 0 0 0 0 0 
0 0 0 0 0 0 0 0 0 
0 0 0 0 0 0 0 0 0 
0 0 0 0 0 0 0 0 0 
0 0 0 0 0 0 0 0 0 
0 0 0 0 0 0 0 0 0 
0 0 0 0 0 0 0 0 0 
0 0 0 0 0 0 0 0 0 
0 0 0 0 0 0 0 0 0 
0 0 0 0 0 0 0 0 0 
0 0 0 0 0 0 0 0 0 
0 0 0 0 0 0 0 0 0 
0 0 0 0 0 0 0 0 0 
0 0 0 0 0 0 0 0 0 
0 0 0 0 0 0 0 0 0 
0 0 0 0 0 0 0 0 0 
0 0 0 0 0 0 0 0 0 
0 0 0 0 0 0 0 0 0 
0 0 0 0 0 0 0 0 0 
0 0 0 0 0 0 0 0 0 
0 0 0 0 0 0 0 0 0 
0 0 0 0 0 0 0 0 0 
0 0 0 0 0 0 0 0 0 
0 0 0 0 0 0 0 0 0 
0 0 0 0 0 0 0 0 0 
0 0 0 0 0 0 0 0 0 
0 0 0 0 0 0 0 0 0 
0 0 0 0 0 0 0 0 0 
0 0 0 0 0 0 0 0 0 
0 0 0 0 0 0 0 0 0 
0 0 0 0 0 0 0 0 0 
0 0 0 0 0 0 0 0 0 
0 0 0 0 0 0 0 0 0 
0 0 0 0 0 0 0 0 0 
0 0 0 0 0 0 0 0 0 
0 0 0 0 0 0 0 0 0 
0 0 0 0 0 0 0 0 0 
0 0 0 0 0 0 0 0 0 
0 0 0 0 0 0 0 0 0 
0 0 0 0 0 0 0 0 0 
0 0 0 0 0 0 0 0 0 
0 0 0 0 0 0 0 0 0 
0 0 0 0 0 0 0 0 0 
0 0 0 0 0 0 0 0 0 
0 0 0 
v 3 1162 double
-0.0224221 0.0048536 -0.0147487 -0.0114132 -0.00940033 0.00374653 -0.00492831 0.00089774 0.000690757 
-0.0132069 -0.0159365 -0.00689996 -0.0169683 -0.0311224 -0.00570856 -0.00743129 -0.0159855 8.97563e-07 
-0.0335384 -0.00320891 0.00803666 -0.0109929 -0.00469318 -2.55377e-05 -0.0310011 -0.00455363 0.00395604 
-0.0171337 0.00862803 0.000212158 -0.0260326 -0.0090037 0.0017207 -0.0385968 0.0220548 5.82564e-06 
-0.0191816 -0.0109403 -0.00284421 -0.00362913 -0.00960544 -4.01572e-05 -0.120639 -0.04568 -0.0564492 
-0.0330775 0.00871344 -0.00463221 0.0353597 -0.0332061 -0.000811454 -0.0128896 -0.0110944 0.00607278 
-0.0604171 0.0267826 7.43582e-09 -0.0245351 -0.00604109 -1.68819e-08 0.000779921 0.00221803 0.000278182 
-0.00191214 0.00358076 0.000479298 9.03234e-05 -0.0080062 0.00411028 0.0067733 0.000203064 1.80716e-07 
-0.00265114 0.00454073 2.8055e-08 -0.000375668 0.00487983 -1.58765e-08 -0.0364762 0.0276344 -0.000215239 
-0.0316536 0.0187085 0.00332402 -0.017435 -0.00323877 -0.000652371 0.0186244 -0.0141375 0.0237072 
0.0414528 -0.00802288 6.81323e-05 -0.00975938 -0.00260722 -0.00689316 -0.00590337 -0.00527708 0.00105635 
-0.021591 0.00768409 5.82009e-05 -0.026487 0.0230789 -1.39279e-05 0.00710015 -0.0306991 0.000505942 
-0.0031916 -0.004198 0.00475669 0.0024264 -0.00893484 -0.000380232 0.00899459 -0.00619628 -0.00341626 
0.000335403 0.00222208 -2.12358e-13 0.00159356 0.0135173 1.98438e-06 -0.0379599 0.0225019 -1.94076e-05 
-0.00520248 -0.00590434 -0.0017928 0.0118261 -0.000240325 9.97982e-08 0.00519266 0.00792711 0.000319432 
-0.0598121 -0.010962 -0.00910577 -0.0768014 0.0321571 0.0812077 -0.0549115 0.122663 0.082289 
0.00874676 0.0115986 1.65139e-13 -0.0187191 0.00102256 0.00133757 -0.0270261 0.018408 -3.39783e-05 
-0.0147289 0.00759308 -0.000149144 -0.00686137 0.00524916 -0.00278868 -0.00857375 0.00867815 -0.063902 
0.000587445 -0.0263917 0.0153417 0.00669286 -0.0254536 -0.0354035 0.046498 -0.0440914 -0.00586465 
0.0101551 -0.00904648 0.000814473 0.00777552 -0.0144048 -0.00125897 0.00860399 -0.00971963 5.99359e-05 
0.0126785 0.0024309 0.000715635 0.00683025 0.0101931 0.0018016 -0.025627 -0.0354188 0.00638847 
-0.0244465 -0.0302517 -0.00292872 0.00908671 0.0104176 -7.9835e-07 -0.0717451 0.0921809 0.00220283 
-0.0330177 -0.0251394 -0.011635 -0.0429943 0.00356239 -0.00179059 -0.0326409 0.022426 -0.0174474 
0.0373772 -0.0385577 -0.0100993 -0.0189128 -0.00795348 0.00331921 6.94549e-05 0.000511907 0.000591142 
0.0129478 -0.0261134 -0.0041348 0.0223107 -0.0144199 -0.00359514 0.0218313 -0.00968496 -0.00080596 
0.0330598 -0.00780063 -0.0145101 -0.0184994 -0.000201824 -0.00235674 -0.00869621 0.00228905 0.00262659 
-0.00938216 -0.0217447 0.00271916 -0.000766895 -0.00106997 -0.00126522 0.00309205 0.0206915 0.0175682 
-0.008025 -0.00533369 -0.00153811 -0.00607415 -0.0724779 -0.00359966 -0.0065582 0.00227761 -0.00279163 
0.0221448 -0.00416548 -0.00871546 -0.0959102 -0.0133679 -0.00275267 -0.0180558 0.00618636 -0.0221646 
-0.0397434 -0.028062 -0.0127176 -0.00435217 0.0229048 0.000374634 -0.00137935 -0.00414136 -0.00185016 
-0.00866355 -0.00313876 0.00287165 -0.00293514 0.00335563 -0.00392065 -0.0137383 -0.0113376 -0.000533181 
-0.0222453 0.00663304 0.00519779 0.00277304 -0.0205507 -0.0103207 0.0120726 -0.0168944 -0.000546432 
-0.0089138 0.0167578 0.0115294 0.0311163 0.0346899 0.0235931 0.0104303 0.0156842 -0.00343028 
-0.0383986 0.0574619 -1.54252e-05 0.00276004 -0.0827337 0.0557467 0.0499769 -0.0164301 -0.00307694 
0.0451395 -0.0487844 -0.00655054 0.0238894 0.00733582 -0.037224 0.204759 -0.0902939 -0.0212644 
0.00304565 0.0190088 0.00113174 -0.0100209 0.000922708 -0.0176489 -0.00869687 0.00174401 -0.000893905 
0.000917176 -0.000457232 -0.000161363 -0.00879553 0.013519 -1.06005e-06 0.0083974 -0.00320469 0.000713536 
0.00313866 -0.010065 0.0022708 0.0144451 -0.0100616 0.000496808 0.0173753 -0.0503374 -0.00608446 
0.00577412 0.00394588 0.00317886 -0.00291994 0.00779186 0.00484791 0.0289847 0.0127777 -0.0057029 
-0.00922184 -0.00704678 -0.000814386 0.0029971 0.0283375 2.30117e-13 -0.0188949 0.0175762 0.0249415 
-0.00226776 -0.0207284 -0.00425401 -0.00208691 -0.00513575 0.00117129 -0.0923403 0.0107536 0.0260383 
0.164613 -0.0791284 -0.0945952 -0.0435993 0.0243876 0.000206724 0.0531886 -0.0293792 0.0555306 
0.0974491 0.00768984 0.00941014 0.0233819 0.0168122 -0.00356232 0.0139231 0.0132154 -0.00038406 
0.0307685 -0.0326467 0.0515015 -0.000425451 0.00335508 -0.000130217 0.00142117 0.000482641 0.000232101 
0.00203626 0.00680116 0.000648869 0.0227894 -0.0086256 0.0111842 -0.0130752 0.0188121 -0.000260415 
0.146778 -0.00852523 0.0323141 0.00542625 -0.0165481 -0.00276323 0.0122896 -0.0255182 0.00186433 
0.00984633 -0.0778088 0.0395411 -0.00158711 -0.0241199 0.00260561 -0.0402765 0.019613 0.00756769 
-0.0180058 -0.0400312 0.08378 0.092231 -0.0732154 0.076514 0.0125206 0.00235902 -0.0424908 
-0.0328996 0.0327336 2.1108e-05 0.265494 0.031319 0.0224007 0.0158098 0.00519341 -0.000674589 
-0.00435712 -0.0135705 0.00943479 -0.0052711 0.0155302 -0.00353329 -0.00677017 -0.0117386 -0.0025825 
-0.0182011 -0.0144627 0.000747384 -0.000221387 0.0120211 7.98767e-05 0.00405723 -0.00811112 -4.54351e-08 