# vtk DataFile Version 4.0
Generated by LIGGGHTS
ASCII
DATASET POLYDATA
POINTS 510 float
-0.013288 -0.0474292 0.0811205 -0.00985492 -0.0483797 0.0811205 -0.00470789 -0.0481385 0.0823685 
0.000354304 -0.0494793 0.0811205 0.00753619 -0.0489953 0.0811205 0.0132156 -0.0475193 0.081227 
-0.0181082 -0.0461842 0.0811205 -0.0157705 -0.0442849 0.0811205 -0.00970479 -0.0452863 0.0811205 
-0.00307281 -0.0443411 0.0812622 -0.000422527 -0.0457395 0.0811201 0.00264294 -0.0457148 0.0811864 
0.00779487 -0.0445195 0.0811205 0.00978324 -0.0469885 0.0811205 -0.0235051 -0.0424906 0.0811205 
-0.0179037 -0.0406708 0.0811205 0.000980587 -0.0410824 0.0821298 0.00777169 -0.0415146 0.0811205 
0.0105795 -0.0426 0.081246 0.017689 -0.0418935 0.0811205 -0.0311173 -0.0387986 0.0811717 
-0.0271122 -0.0402172 0.0821183 0.0109295 -0.039546 0.0811262 0.0312166 -0.0372735 0.0821183 
-0.00853256 -0.0333253 0.0816123 -0.00110015 -0.0361679 0.0813872 0.00909164 -0.0365731 0.0811205 
0.0188856 -0.0362951 0.0811205 0.0282438 -0.034694 0.0811205 0.0331075 -0.0338254 0.0811205 
-0.0323609 -0.0329565 0.0811205 -0.0287859 -0.0314484 0.0811267 -0.0187467 -0.0325334 0.0821183 
-0.000523985 -0.0329022 0.08108 0.0291433 -0.0317929 0.0811233 -0.0341635 -0.0291752 0.0811205 
-0.0139481 -0.0284718 0.0815706 0.0138492 -0.0282735 0.0811205 0.0198769 -0.0284653 0.0821172 
0.0278576 -0.0277056 0.0822335 0.0339083 -0.0296703 0.0811218 0.0361018 -0.0276249 0.0811503 
0.0387181 -0.0290931 0.0811206 0.0413273 -0.0268511 0.0811199 -0.0342317 -0.0239893 0.0819168 
-0.0303657 -0.0255716 0.0821182 -0.00806862 -0.0247196 0.0811414 -0.00455986 -0.0264014 0.0823349 
0.00107702 -0.0253387 0.0831814 0.0335912 -0.0238093 0.0821183 0.0387616 -0.0239365 0.0821182 
-0.0447789 -0.0197579 0.0811205 -0.0392743 -0.0224358 0.0831776 -0.0106879 -0.0220466 0.0816984 
0.0367192 -0.0206164 0.0811213 0.0431694 -0.0226004 0.0811205 0.0444964 -0.0196083 0.0811205 
-0.0409894 -0.0188139 0.0811038 -0.0283841 -0.0160242 0.082126 -0.0208939 -0.0189654 0.0811205 
-0.0137168 -0.0192848 0.0821191 -0.00626386 -0.0157923 0.0811205 -0.00287067 -0.0180658 0.0821182 
0.0391686 -0.018617 0.0811205 0.0422178 -0.0159896 0.0821183 -0.0466745 -0.0134547 0.0821183 
-0.0415898 -0.0149423 0.0821178 -0.0342579 -0.0137834 0.0811209 -0.0369206 -0.0153869 0.0815601 
-0.0224018 -0.0135122 0.0811205 -0.0140162 -0.0138341 0.0811205 -0.0101406 -0.0155788 0.0821183 
-0.00251713 -0.012583 0.0821183 0.00331758 -0.0127112 0.0818554 0.00882162 -0.0131788 0.0821403 
0.0144544 -0.0140356 0.0811204 0.0341663 -0.0157204 0.082397 0.0378414 -0.0147166 0.0811204 
0.0454357 -0.0133541 0.0811205 -0.041675 -0.00964766 0.0821198 -0.0341229 -0.010671 0.0811204 
-0.0299133 -0.010868 0.0811108 0.0206967 -0.011096 0.0811205 0.0364942 -0.0108985 0.0811205 
0.0396556 -0.0121606 0.0811581 0.0431344 -0.011258 0.0811205 0.0481412 -0.0120555 0.0811202 
-0.04699 -0.00808825 0.0821183 -0.042218 -0.00523181 0.0811205 -0.0299486 -0.00637762 0.0811742 
-0.00832527 -0.00894492 0.0821183 0.00262477 -0.00698485 0.0820868 0.00668309 -0.00677469 0.0821182 
0.0251484 -0.00797487 0.0821186 0.0288202 -0.00665546 0.0811205 0.0414926 -0.00872291 0.0821052 
-0.0438477 -0.00228436 0.0811204 0.0215693 -0.00295275 0.0815377 0.0255855 -0.00200899 0.0816083 
0.0308507 -0.00316954 0.081489 -0.0321445 0.000916425 0.0811205 -0.0259759 -0.000655226 0.0812037 
0.00156988 -0.000726725 0.0821771 0.0120688 0.00137936 0.0811214 0.0321283 0.000899962 0.0821806 
-0.0480263 0.00431793 0.0811204 -0.0389117 0.00164155 0.0811244 -0.0387936 0.00473672 0.0811488 
-0.0266223 0.00258022 0.0811205 -0.0107153 0.0030774 0.0811202 -0.00730206 0.00314515 0.0811293 
-0.00348526 0.00423751 0.0811205 -0.000721226 0.00337523 0.0819918 0.0053633 0.00334848 0.0830809 
0.00918528 0.00270788 0.0813636 0.0201856 0.00140986 0.0821182 0.0262838 0.00224101 0.0821181 
0.036376 0.00225953 0.0820879 0.0462829 0.00364491 0.0821179 -0.0454457 0.00582371 0.0811787 
-0.037229 0.0073154 0.081411 -0.0275197 0.00815253 0.0811205 -0.0192233 0.00697948 0.0811205 
-0.0145775 0.00521445 0.0818128 -0.00712325 0.00795036 0.082119 0.000213938 0.00606164 0.0811087 
0.013559 0.0059241 0.0822304 0.0235294 0.00671234 0.0821748 0.0274035 0.00771584 0.0811205 
0.0342844 0.00651752 0.0819311 -0.0476556 0.0096805 0.0821182 -0.043493 0.0108766 0.0811092 
-0.0109463 0.0112279 0.0821177 -0.00376289 0.0098597 0.0811174 0.0188466 0.0120685 0.0811373 
0.0477491 0.00903858 0.0821182 -0.0460434 0.0144737 0.0821178 -0.0417394 0.0133785 0.0811206 
-0.0378539 0.0139824 0.0821183 -0.0322769 0.015357 0.0821183 -0.0191826 0.0149068 0.0821182 
-0.0145103 0.0128482 0.081359 -0.0123069 0.0150739 0.0811205 -0.00406402 0.0140409 0.0821186 
0.0242615 0.0126849 0.0811204 -0.0247061 0.0158199 0.0813329 0.000285684 0.0185267 0.0811219 
0.00921887 0.0160174 0.0812877 0.0242129 0.0173577 0.0811466 0.0371867 0.0185324 0.0821183 
-0.0432581 0.021359 0.0821187 -0.0381487 0.0204368 0.0811205 -0.017467 0.0209401 0.0811205 
0.0265955 0.0225722 0.0811205 -0.0387541 0.0244174 0.0821183 -0.0297674 0.0260963 0.0811205 
0.0266898 0.025941 0.0811205 -0.0386476 0.0294747 0.0821183 -0.0337179 0.0267402 0.0821183 
-0.0176859 0.0267446 0.0834571 -0.00795281 0.0282047 0.0821182 0.00734161 0.0273742 0.0821183 
0.0314873 0.0283574 0.0811205 0.0400718 0.0275509 0.0811205 -0.0369285 0.0330954 0.0811205 
-0.034944 0.0306164 0.0811205 -0.0246211 0.032936 0.08112 -0.0217351 0.030253 0.0821189 
0.000726172 0.0303321 0.0814533 0.00348351 0.0314454 0.0811119 0.0099381 0.0329588 0.0811205 
0.0158433 0.0317165 0.0815064 0.0248519 0.0309669 0.0811208 0.0279858 0.0302965 0.0811205 
0.0307087 0.0316183 0.0811205 0.0345371 0.0308237 0.0821182 0.0390665 0.030514 0.0811205 
-0.0322569 0.0334128 0.0821183 -0.0285646 0.0348768 0.0811205 -0.0250088 0.0367095 0.0823835 
0.020589 0.0351665 0.0817867 0.0240267 0.034017 0.0812163 0.0280607 0.0347275 0.0811205 
0.032503 0.0341356 0.0811668 -0.0311638 0.038458 0.0811216 -0.0263812 0.0402434 0.081118 
-0.0165175 0.0376318 0.0815495 0.0108161 0.0378749 0.0811205 0.0218307 0.0400858 0.0821186 
0.02695 0.039497 0.0811205 0.0321242 0.0378239 0.0811205 -0.0199289 0.0428784 0.0821803 
0.00802584 0.043317 0.0811217 0.0146092 0.0434901 0.0820975 0.022419 0.043944 0.0810884 
-0.0137612 0.0466448 0.0821293 -0.00808191 0.046588 0.0811466 -0.00111597 0.0467338 0.0811253 
0.00626815 0.0464705 0.0828272 0.011321 0.04732 0.0821183 -0.00384779 0.0492412 0.0811205 
0.00283279 0.0491824 0.0812422 -0.0153478 -0.0462491 0.0839011 -0.00612666 -0.0443588 0.0822992 
0.0027536 -0.0466597 0.0844506 0.0105303 -0.0439893 0.0843034 0.00161288 -0.0390244 0.0856972 
-0.0300956 -0.0364879 0.0842462 -0.00465258 -0.0350571 0.0838962 0.0365033 -0.0321656 0.0831439 
0.0396729 -0.0298106 0.0838721 -0.0159957 -0.027169 0.0859774 -0.0096776 -0.0284254 0.0811075 
-0.00247168 -0.029849 0.0861266 -0.011529 -0.0245763 0.0831306 0.00919153 -0.0280128 0.0820375 
0.0159581 -0.019066 0.084241 0.0428109 -0.020126 0.0839442 -0.00530867 -0.0159479 0.0847841 
0.0132199 -0.0162956 0.0863922 0.0273031 -0.0141305 0.0826799 0.0318537 -0.0133445 0.0848925 
-0.0391223 -0.0124143 0.0839858 -0.0350734 -0.0120048 0.0838956 -0.0250192 -0.0101514 0.0824192 
0.0144754 -0.00825483 0.0844681 -0.0319108 -0.00815657 0.0842652 -0.018691 -0.00672952 0.0822084 
-0.00544349 -0.00575165 0.0831955 0.0317035 -0.00922392 0.0856578 -0.0418283 -0.00309583 0.0832863 
-0.031318 -0.00108965 0.0849646 -0.0241979 -0.00417148 0.0844969 -0.0143258 -0.00436865 0.0820771 
-0.0116061 -0.00493904 0.0833739 0.0239625 -0.0042808 0.0839061 0.0470804 -0.0051132 0.084592 
-0.0274605 -0.000403174 0.085509 -0.0125805 -0.00029627 0.0821807 -0.00309695 -0.00137909 0.0876687 
0.00791182 -0.00112603 0.0823846 0.035978 -0.000606565 0.0830123 0.0397975 0.00106711 0.0825243 
0.0390668 -0.000927299 0.0848403 -0.00651057 0.00187996 0.0848501 0.00861723 0.00416513 0.0869239 
0.0115641 0.00297289 0.0849539 0.0211804 0.00442674 0.0845479 0.0485527 0.00198551 0.0849552 
-0.0106209 0.00749923 0.0856484 0.030464 0.0068227 0.082417 -0.043775 0.010785 0.0850751 
-0.0156891 0.00961828 0.0834294 -0.00559432 0.0111458 0.0844349 -0.000986965 0.00877474 0.0814499 
0.0062174 0.0112555 0.0823399 0.0182644 0.0108758 0.0838607 0.02634 0.0112075 0.0826999 
0.0327117 0.0114045 0.0821598 0.0403126 0.0101137 0.0853071 -0.047917 0.0131738 0.0854017 
-0.041399 0.0159546 0.0828935 -0.0148437 0.0182459 0.0835099 0.043902 0.0158837 0.0823862 
-0.0336574 0.02221 0.0846167 0.00654673 0.0220869 0.0839944 0.00052765 0.0253634 0.0821123 
-0.0195224 0.0281087 0.0873878 -0.00271916 0.0368033 0.0851624 0.0309066 0.0335924 0.0848996 
-0.0305533 0.0374195 0.0842222 0.0169886 0.0387859 0.0825591 -0.0284868 0.0406272 0.0832174 
0.00541757 0.0420214 0.0855327 0.00975095 0.0415775 0.0836865 0.0192859 0.0446065 0.0834231 
0.00298637 0.0494992 0.0842146 -0.00134364 -0.0477562 0.0860474 -0.0130666 -0.0456001 0.0869304 
-0.00956245 -0.0418286 0.0888777 -0.000810873 -0.043406 0.0868756 0.0257376 -0.0405826 0.087387 
-0.0181314 -0.0365099 0.0890732 0.0195411 -0.034762 0.0865602 -0.0244375 -0.0349136 0.0892652 
-0.0228705 -0.0279163 0.0903555 -0.00948325 -0.0250304 0.0870221 0.00731956 -0.0253235 0.086363 
-0.00448353 -0.0184012 0.0869734 0.00937797 -0.0123605 0.0887028 -0.0458736 -0.0107139 0.0861201 
-0.0292153 -0.0116373 0.0886814 0.00916302 -0.00906852 0.0860974 0.0259556 -0.00805378 0.08764 
-0.034289 -0.00334553 0.0871798 -0.0417404 -6.80584e-05 0.0884964 -0.0368528 0.00205439 0.0897614 
0.0456746 0.00064811 0.0864573 0.00377231 0.00434554 0.0878381 0.0111154 0.00144635 0.0875622 
0.018379 0.00720261 0.0855126 -0.00865506 0.011437 0.0868682 0.00143497 0.0110018 0.0837335 
-0.0150822 0.0130663 0.0878128 -0.00303199 0.0146896 0.0881625 0.014283 0.0150683 0.088152 
0.0214117 0.0166753 0.0860043 0.0343556 0.0160171 0.0890488 -0.0416758 0.022118 0.0872636 
0.0141716 0.0252499 0.0870546 0.0345684 0.0276256 0.0873729 0.0101594 0.0369992 0.0891072 
-0.0189899 0.0391867 0.0855254 0.0132177 0.0406667 0.0859338 0.0205901 0.0375133 0.0862177 
-0.0045481 0.0444323 0.0866282 0.00227335 -0.033624 0.0836597 -0.0156302 -0.0305251 0.089916 
-0.00650279 -0.028178 0.0907104 0.0134223 -0.0287312 0.0907086 0.0390308 -0.0275345 0.089483 
-0.0462494 -0.01614 0.0916165 0.0332206 -0.0132997 0.0889753 -0.0245847 -0.0108132 0.0878505 
0.0164489 -0.00414888 0.0917863 -0.01541 0.00129778 0.084314 -0.00867228 0.01363 0.0912342 
0.018346 0.0122867 0.0886182 0.0247417 0.0153298 0.0942751 0.0268105 0.025653 0.0905276 
-0.0162336 0.0288485 0.0914077 -0.00612064 0.043742 0.089034 0.0215483 0.0443092 0.0918266 
-0.0201523 -0.0451792 0.0950227 -0.0126728 -0.0431949 0.0962011 0.0102104 -0.0366611 0.0963821 
0.00616921 -0.0220384 0.0883375 0.042374 -0.0236684 0.0935055 0.00208311 -0.0147639 0.0918749 
-0.0341147 -0.00837188 0.095522 -0.0226059 -0.00570087 0.0902755 0.0318606 -0.00588886 0.0924203 
-0.0271281 0.000814539 0.096835 -0.0341341 0.0119744 0.0954475 -0.013016 0.0127175 0.0961083 
-0.00389534 0.0123193 0.0926767 -0.0196701 0.0226716 0.0947639 -0.0060426 0.0333505 0.0938865 
-0.023538 0.035768 0.0932051 0.00828465 0.0404206 0.0934323 0.00823708 0.0473385 0.0951329 
-0.00948311 -0.0468995 0.0968271 0.0109519 -0.0452666 0.099787 0.0112621 -0.0189938 0.092607 
-0.0272984 -0.0160521 0.0967793 0.0143124 -0.0130284 0.100115 0.0399978 -0.00278466 0.0911478 
-0.0469345 -0.00180297 0.0986492 -0.0218177 0.0172583 0.0911446 -0.0199031 0.0396403 0.0952925 
-0.0298631 -0.0340866 0.101738 -0.0220288 -0.0361214 0.0950713 0.00281098 -0.0339228 0.0921845 
0.0203442 -0.0285468 0.0940899 -0.0263638 0.011884 0.0941705 -0.0321986 0.0169417 0.102115 
0.0123094 0.0175963 0.0952411 -0.00399598 0.0224229 0.0954593 -0.0444439 -0.00601372 0.0987534 
-0.00621866 0.0299949 0.098589 0.0121843 -0.019531 0.105859 -0.0334334 -0.00541557 0.110999 
-0.0283224 -0.000512593 0.104151 0.0373051 0.00420623 0.104247 -0.00499611 0.0158862 0.105154 
0.0213853 0.0055008 0.106429 -0.00228932 0.0314684 0.106548 0.0248347 -0.0165705 0.110179 
0.0319623 -0.0126898 0.110367 -0.0420496 -0.00748094 0.114634 0.0378325 -0.00278681 0.115022 
-0.0192166 0.0328101 0.114199 0.0101063 -0.0287233 0.117982 0.0026896 -0.0431779 0.12293 
0.00244787 -0.0184176 0.123095 0.0301274 0.0119527 0.121687 -0.0186207 0.015316 0.120724 
-0.0297208 0.0321235 0.121233 0.0151321 -0.0388474 0.126642 0.0324133 -0.0218036 0.125642 
-0.0239733 0.00659914 0.125939 0.0120071 -0.0184136 0.130672 -0.0192635 0.00970267 0.12971 
-0.00982934 0.0277857 0.135903 -0.0207231 0.0361573 0.129515 0.00446813 0.0346603 0.128478 
0.0187888 -0.036103 0.141559 -0.0188877 0.0132342 0.138974 0.00910245 -0.0264534 0.143926 
0.00509804 -0.0122439 0.143924 -0.0346659 0.0259845 0.143077 0.0226004 0.0296669 0.144514 
-0.0306557 0.0307859 0.144842 -0.00675232 -0.0341908 0.149204 0.0397906 -0.00569887 0.149369 
-0.0131665 -0.00041517 0.150466 0.0263239 0.0114826 0.151283 -0.010093 0.0189857 0.151269 
-0.00986964 0.0234333 0.150263 0.00514247 -0.00729011 0.154007 0.0339171 0.00678579 0.154367 
0.0383596 0.0195173 0.155126 -0.0098011 -0.0234588 0.158898 -0.0159786 0.0418657 0.158054 
0.0115072 0.0275582 0.161438 0.0124456 0.0361137 0.160198 0.0106157 -0.0110129 0.166753 
-0.00686511 -0.0244712 0.170532 1.88277e-05 0.0106236 0.168853 -0.0220649 0.0240844 0.168009 
-0.0226352 0.037476 0.168379 -0.0164499 -0.0316348 0.173142 -0.0307885 -0.0246845 0.170983 
0.00181328 0.0012361 0.171251 0.00346831 0.0047695 0.173978 0.00328139 -0.00288698 0.177539 
-0.0100523 0.0290413 0.176994 0.0154945 -0.0382361 0.179968 -0.0392343 -0.0206563 0.17941 
0.0212559 0.0219542 0.179509 0.00910765 -0.0437569 0.182129 0.0201954 -0.0338501 0.183184 
-0.0161912 0.0404917 0.183124 0.0235324 -0.0374549 0.188851 0.011803 0.00373837 0.187008 
0.00518514 0.0301068 0.188555 0.030057 0.0264087 0.19221 0.00240024 0.0412985 0.189966 
0.00708918 -0.0103582 0.193212 0.00126463 0.00207793 0.193303 -0.000263412 0.0194023 0.19387 
0.00775486 0.0350729 0.194842 -0.0230534 0.0139998 0.197358 -0.00725241 0.0350264 0.197606 
-0.023737 -0.0372682 0.202911 -0.0130512 -0.0152917 0.199771 0.0325846 -0.00718816 0.203073 
0.015905 0.00472444 0.200183 -0.00663488 0.042427 0.202065 -0.00296953 0.00249339 0.205335 
-0.0154989 0.0113036 0.206064 -0.0260806 0.0140553 0.205396 0.0323414 -0.025442 0.208089 
-0.0230999 -0.0159577 0.209369 -0.0113132 0.0360437 0.207179 0.0322522 0.0228406 0.210568 
-0.0158361 0.0319721 0.211942 0.012147 0.0366448 0.211019 0.0365738 -0.00545749 0.216545 
-0.00125423 0.000642836 0.214712 0.0301005 0.00778085 0.21663 -0.0349684 0.0269124 0.215123 
0.021277 -0.0104309 0.219364 -0.0100984 0.0159517 0.219843 0.0176444 0.0282352 0.219165 
0.00281054 0.0354158 0.219224 0.0316653 -0.0183535 0.224363 -0.0330998 -0.0147296 0.224309 
-0.0320416 -0.00737402 0.221594 0.00721961 0.0212247 0.224006 -0.0338811 0.024557 0.223668 
0.0216143 0.00511649 0.227862 -0.00519841 -0.0422854 0.231995 0.00239577 -0.0253613 0.231416 
-0.00916434 0.0174735 0.231865 -0.0206311 0.0362053 0.22903 0.0324545 -0.0131613 0.235653 
-0.00166866 -0.0104484 0.233814 0.00214622 0.0177652 0.234231 0.0102732 0.0209266 0.233286 
-0.020166 0.028385 0.234017 -0.00129972 0.040174 0.232303 0.0236946 -0.0220235 0.238599 
0.0254918 -0.00913292 0.23603 0.0267094 0.0344695 0.236857 0.00323573 -0.032034 0.242024 
-0.00255536 -0.0236362 0.240433 0.0209373 -0.0154221 0.243129 0.033381 -0.00824442 0.240259 
0.0041374 0.0280631 0.240125 0.0177829 -0.037652 0.244319 0.00389324 -0.0267974 0.243697 
0.0343148 -0.0230812 0.246229 -0.0410739 -0.015035 0.243305 0.0341926 -0.00440564 0.24603 
0.0388148 0.000921297 0.244643 -0.000705377 0.0157954 0.244007 0.00372476 0.00518069 0.249987 
0.0177825 0.038773 0.249987 -0.0376082 -0.00405857 0.253038 0.0231215 0.0236552 0.252432 
0.00725168 -0.0335304 0.257085 0.0173042 -0.0165131 0.254425 -0.0192203 -0.00861903 0.254429 
0.00100966 0.0163063 0.256101 0.0390993 0.0190891 0.254842 -0.00813066 0.0242352 0.254185 
0.0163192 0.0230901 0.255325 0.0275569 0.0261137 0.255661 0.019281 -0.0122122 0.258982 

VERTICES 510 1020
1 0 
1 1 
1 2 
1 3 
1 4 
1 5 
1 6 
1 7 
1 8 
1 9 
1 10 
1 11 
1 12 
1 13 
1 14 
1 15 
1 16 
1 17 
1 18 
1 19 
1 20 
1 21 
1 22 
1 23 
1 24 
1 25 
1 26 
1 27 
1 28 
1 29 
1 30 
1 31 
1 32 
1 33 
1 34 
1 35 
1 36 
1 37 
1 38 
1 39 
1 40 
1 41 
1 42 
1 43 
1 44 
1 45 
1 46 
1 47 
1 48 
1 49 
1 50 
1 51 
1 52 
1 53 
1 54 
1 55 
1 56 
1 57 
1 58 
1 59 
1 60 
1 61 
1 62 
1 63 
1 64 
1 65 
1 66 
1 67 
1 68 
1 69 
1 70 
1 71 
1 72 
1 73 
1 74 
1 75 
1 76 
1 77 
1 78 
1 79 
1 80 
1 81 
1 82 
1 83 
1 84 
1 85 
1 86 
1 87 
1 88 
1 89 
1 90 
1 91 
1 92 
1 93 
1 94 
1 95 
1 96 
1 97 
1 98 
1 99 
1 100 
1 101 
1 102 
1 103 
1 104 
1 105 
1 106 
1 107 
1 108 
1 109 
1 110 
1 111 
1 112 
1 113 
1 114 
1 115 
1 116 
1 117 
1 118 
1 119 
1 120 
1 121 
1 122 
1 123 
1 124 
1 125 
1 126 
1 127 
1 128 
1 129 
1 130 
1 131 
1 132 
1 133 
1 134 
1 135 
1 136 
1 137 
1 138 
1 139 
1 140 
1 141 
1 142 
1 143 
1 144 
1 145 
1 146 
1 147 
1 148 
1 149 
1 150 
1 151 
1 152 
1 153 
1 154 
1 155 
1 156 
1 157 
1 158 
1 159 
1 160 
1 161 
1 162 
1 163 
1 164 
1 165 
1 166 
1 167 
1 168 
1 169 
1 170 
1 171 
1 172 
1 173 
1 174 
1 175 
1 176 
1 177 
1 178 
1 179 
1 180 
1 181 
1 182 
1 183 
1 184 
1 185 
1 186 
1 187 
1 188 
1 189 
1 190 
1 191 
1 192 
1 193 
1 194 
1 195 
1 196 
1 197 
1 198 
1 199 
1 200 
1 201 
1 202 
1 203 
1 204 
1 205 
1 206 
1 207 
1 208 
1 209 
1 210 
1 211 
1 212 
1 213 
1 214 
1 215 
1 216 
1 217 
1 218 
1 219 
1 220 
1 221 
1 222 
1 223 
1 224 
1 225 
1 226 
1 227 
1 228 
1 229 
1 230 
1 231 
1 232 
1 233 
1 234 
1 235 
1 236 
1 237 
1 238 
1 239 
1 240 
1 241 
1 242 
1 243 
1 244 
1 245 
1 246 
1 247 
1 248 
1 249 
1 250 
1 251 
1 252 
1 253 
1 254 
1 255 
1 256 
1 257 
1 258 
1 259 
1 260 
1 261 
1 262 
1 263 
1 264 
1 265 
1 266 
1 267 
1 268 
1 269 
1 270 
1 271 
1 272 
1 273 
1 274 
1 275 
1 276 
1 277 
1 278 
1 279 
1 280 
1 281 
1 282 
1 283 
1 284 
1 285 
1 286 
1 287 
1 288 
1 289 
1 290 
1 291 
1 292 
1 293 
1 294 
1 295 
1 296 
1 297 
1 298 
1 299 
1 300 
1 301 
1 302 
1 303 
1 304 
1 305 
1 306 
1 307 
1 308 
1 309 
1 310 
1 311 
1 312 
1 313 
1 314 
1 315 
1 316 
1 317 
1 318 
1 319 
1 320 
1 321 
1 322 
1 323 
1 324 
1 325 
1 326 
1 327 
1 328 
1 329 
1 330 
1 331 
1 332 
1 333 
1 334 
1 335 
1 336 
1 337 
1 338 
1 339 
1 340 
1 341 
1 342 
1 343 
1 344 
1 345 
1 346 
1 347 
1 348 
1 349 
1 350 
1 351 
1 352 
1 353 
1 354 
1 355 
1 356 
1 357 
1 358 
1 359 
1 360 
1 361 
1 362 
1 363 
1 364 
1 365 
1 366 
1 367 
1 368 
1 369 
1 370 
1 371 
1 372 
1 373 
1 374 
1 375 
1 376 
1 377 
1 378 
1 379 
1 380 
1 381 
1 382 
1 383 
1 384 
1 385 
1 386 
1 387 
1 388 
1 389 
1 390 
1 391 
1 392 
1 393 
1 394 
1 395 
1 396 
1 397 
1 398 
1 399 
1 400 
1 401 
1 402 
1 403 
1 404 
1 405 
1 406 
1 407 
1 408 
1 409 
1 410 
1 411 
1 412 
1 413 
1 414 
1 415 
1 416 
1 417 
1 418 
1 419 
1 420 
1 421 
1 422 
1 423 
1 424 
1 425 
1 426 
1 427 
1 428 
1 429 
1 430 
1 431 
1 432 
1 433 
1 434 
1 435 
1 436 
1 437 
1 438 
1 439 
1 440 
1 441 
1 442 
1 443 
1 444 
1 445 
1 446 
1 447 
1 448 
1 449 
1 450 
1 451 
1 452 
1 453 
1 454 
1 455 
1 456 
1 457 
1 458 
1 459 
1 460 
1 461 
1 462 
1 463 
1 464 
1 465 
1 466 
1 467 
1 468 
1 469 
1 470 
1 471 
1 472 
1 473 
1 474 
1 475 
1 476 
1 477 
1 478 
1 479 
1 480 
1 481 
1 482 
1 483 
1 484 
1 485 
1 486 
1 487 
1 488 
1 489 
1 490 
1 491 
1 492 
1 493 
1 494 
1 495 
1 496 
1 497 
1 498 
1 499 
1 500 
1 501 
1 502 
1 503 
1 504 
1 505 
1 506 
1 507 
1 508 
1 509 

POINT_DATA 510
FIELD FieldData 7
id 1 510 int
199 32 171 90 240 18 262 250 96 
59 70 207 87 46 76 6 79 213 
95 19 178 2 21 92 77 24 45 
33 50 238 173 278 119 100 51 113 
239 165 158 258 228 167 110 187 352 
259 266 208 182 80 221 48 164 13 
11 179 86 274 4 161 260 138 30 
217 67 144 132 84 191 263 36 54 
53 276 195 180 157 74 128 134 202 
88 44 174 69 102 10 185 168 115 
197 9 93 66 188 255 154 114 324 
312 89 194 169 139 160 149 116 148 
85 125 275 151 111 156 230 14 91 
315 130 253 325 20 64 22 55 162 
15 104 201 241 105 124 28 175 155 
143 65 268 107 120 5 126 26 3 
227 83 313 97 219 42 29 57 292 
23 1 25 205 41 121 349 133 106 
200 140 135 47 8 117 150 71 99 
181 60 136 72 78 129 68 34 232 
344 73 37 103 152 177 127 112 147 
142 75 118 254 16 7 170 163 109 
52 31 123 56 290 189 293 303 316 
94 220 184 63 310 204 252 280 346 
43 216 193 35 17 353 330 286 331 
289 222 271 337 332 58 356 351 38 
264 203 334 236 333 336 172 186 327 
192 247 355 357 122 288 146 350 209 
295 242 311 321 301 302 145 348 49 
61 270 267 210 40 246 335 226 198 
176 27 244 196 340 81 243 211 249 
287 166 98 342 272 329 338 273 345 
279 319 294 153 318 234 183 261 341 
265 101 354 257 82 347 62 298 206 
245 339 235 223 248 307 131 320 282 
190 362 39 137 237 277 108 256 218 
343 368 309 231 326 284 317 212 328 
12 299 300 367 305 323 306 369 229 
314 322 141 224 308 285 214 251 281 
269 296 359 304 291 363 283 370 215 
297 358 366 364 365 225 361 360 382 
379 375 233 383 373 380 374 378 371 
377 381 372 376 396 394 392 393 388 
386 390 387 395 384 385 159 391 389 
398 405 400 408 403 401 404 407 406 
409 399 397 402 421 418 420 412 414 
411 419 416 429 413 415 417 431 433 
410 432 425 427 422 428 430 423 426 
424 444 446 439 442 445 435 437 436 
440 441 443 457 438 454 434 458 453 
447 451 449 456 455 448 452 450 463 
469 467 466 459 465 471 461 462 464 
460 468 470 477 479 480 481 483 473 
478 484 472 475 474 495 476 482 497 
492 489 494 488 491 486 485 496 493 
490 487 502 499 509 500 510 507 506 
503 504 501 505 508 498 
type 1 510 int
1 1 1 1 1 1 1 1 1 
1 1 1 1 1 1 1 1 1 
1 1 1 1 1 1 1 1 1 
1 1 1 1 1 1 1 1 1 
1 1 1 1 1 1 1 1 1 
1 1 1 1 1 1 1 1 1 
1 1 1 1 1 1 1 1 1 
1 1 1 1 1 1 1 1 1 
1 1 1 1 1 1 1 1 1 
1 1 1 1 1 1 1 1 1 
1 1 1 1 1 1 1 1 1 
1 1 1 1 1 1 1 1 1 
1 1 1 1 1 1 1 1 1 
1 1 1 1 1 1 1 1 1 
1 1 1 1 1 1 1 1 1 
1 1 1 1 1 1 1 1 1 
1 1 1 1 1 1 1 1 1 
1 1 1 1 1 1 1 1 1 
1 1 1 1 1 1 1 1 1 
1 1 1 1 1 1 1 1 1 
1 1 1 1 1 1 1 1 1 
1 1 1 1 1 1 1 1 1 
1 1 1 1 1 1 1 1 1 
1 1 1 1 1 1 1 1 1 
1 1 1 1 1 1 1 1 1 
1 1 1 1 1 1 1 1 1 
1 1 1 1 1 1 1 1 1 
1 1 1 1 1 1 1 1 1 
1 1 1 1 1 1 1 1 1 
1 1 1 1 1 1 1 1 1 
1 1 1 1 1 1 1 1 1 
1 1 1 1 1 1 1 1 1 
1 1 1 1 1 1 1 1 1 
1 1 1 1 1 1 1 1 1 
1 1 1 1 1 1 1 1 1 
1 1 1 1 1 1 1 1 1 
1 1 1 1 1 1 1 1 1 
1 1 1 1 1 1 1 1 1 
1 1 1 1 1 1 1 1 1 
1 1 1 1 1 1 1 1 1 
1 1 1 1 1 1 1 1 1 
1 1 1 1 1 1 1 1 1 
1 1 1 1 1 1 1 1 1 
1 1 1 1 1 1 1 1 1 
1 1 1 1 1 1 1 1 1 
1 1 1 1 1 1 1 1 1 
1 1 1 1 1 1 1 1 1 
1 1 1 1 1 1 1 1 1 
1 1 1 1 1 1 1 1 1 
1 1 1 1 1 1 1 1 1 
1 1 1 1 1 1 1 1 1 
1 1 1 1 1 1 1 1 1 
1 1 1 1 1 1 1 1 1 
1 1 1 1 1 1 1 1 1 
1 1 1 1 1 1 1 1 1 
1 1 1 1 1 1 1 1 1 
1 1 1 1 1 1 
i 3 510 int
0 0 0 0 0 0 0 0 0 
0 0 0 0 0 0 0 0 0 
0 0 0 0 0 0 0 0 0 
0 0 0 0 0 0 0 0 0 
0 0 0 0 0 0 0 0 0 
0 0 0 0 0 0 0 0 0 
0 0 0 0 0 0 0 0 0 
0 0 0 0 0 0 0 0 0 
0 0 0 0 0 0 0 0 0 
0 0 0 0 0 0 0 0 0 
0 0 0 0 0 0 0 0 0 
0 0 0 0 0 0 0 0 0 
0 0 0 0 0 0 0 0 0 
0 0 0 0 0 0 0 0 0 
0 0 0 0 0 0 0 0 0 
0 0 0 0 0 0 0 0 0 
0 0 0 0 0 0 0 0 0 
0 0 0 0 0 0 0 0 0 
0 0 0 0 0 0 0 0 0 
0 0 0 0 0 0 0 0 0 
0 0 0 0 0 0 0 0 0 
0 0 0 0 0 0 0 0 0 
0 0 0 0 0 0 0 0 0 
0 0 0 0 0 0 0 0 0 
0 0 0 0 0 0 0 0 0 
0 0 0 0 0 0 0 0 0 
0 0 0 0 0 0 0 0 0 
0 0 0 0 0 0 0 0 0 
0 0 0 0 0 0 0 0 0 
0 0 0 0 0 0 0 0 0 
0 0 0 0 0 0 0 0 0 
0 0 0 0 0 0 0 0 0 
0 0 0 0 0 0 0 0 0 
0 0 0 0 0 0 0 0 0 
0 0 0 0 0 0 0 0 0 
0 0 0 0 0 0 0 0 0 
0 0 0 0 0 0 0 0 0 
0 0 0 0 0 0 0 0 0 
0 0 0 0 0 0 0 0 0 
0 0 0 0 0 0 0 0 0 
0 0 0 0 0 0 0 0 0 
0 0 0 0 0 0 0 0 0 
0 0 0 0 0 0 0 0 0 
0 0 0 0 0 0 0 0 0 
0 0 0 0 0 0 0 0 0 
0 0 0 0 0 0 0 0 0 
0 0 0 0 0 0 0 0 0 
0 0 0 0 0 0 0 0 0 
0 0 0 0 0 0 0 0 0 
0 0 0 0 0 0 0 0 0 
0 0 0 0 0 0 0 0 0 
0 0 0 0 0 0 0 0 0 
0 0 0 0 0 0 0 0 0 
0 0 0 0 0 0 0 0 0 
0 0 0 0 0 0 0 0 0 
0 0 0 0 0 0 0 0 0 
0 0 0 0 0 0 0 0 0 
0 0 0 0 0 0 0 0 0 
0 0 0 0 0 0 0 0 0 
0 0 0 0 0 0 0 0 0 
0 0 0 0 0 0 0 0 0 
0 0 0 0 0 0 0 0 0 
0 0 0 0 0 0 0 0 0 
0 0 0 0 0 0 0 0 0 
0 0 0 0 0 0 0 0 0 
0 0 0 0 0 0 0 0 0 
0 0 0 0 0 0 0 0 0 
0 0 0 0 0 0 0 0 0 
0 0 0 0 0 0 0 0 0 
0 0 0 0 0 0 0 0 0 
0 0 0 0 0 0 0 0 0 
0 0 0 0 0 0 0 0 0 
0 0 0 0 0 0 0 0 0 
0 0 0 0 0 0 0 0 0 
0 0 0 0 0 0 0 0 0 
0 0 0 0 0 0 0 0 0 
0 0 0 0 0 0 0 0 0 
0 0 0 0 0 0 0 0 0 
0 0 0 0 0 0 0 0 0 
0 0 0 0 0 0 0 0 0 
0 0 0 0 0 0 0 0 0 
0 0 0 0 0 0 0 0 0 
0 0 0 0 0 0 0 0 0 
0 0 0 0 0 0 0 0 0 
0 0 0 0 0 0 0 0 0 
0 0 0 0 0 0 0 0 0 
0 0 0 0 0 0 0 0 0 
0 0 0 0 0 0 0 0 0 
0 0 0 0 0 0 0 0 0 
0 0 0 0 0 0 0 0 0 
0 0 0 0 0 0 0 0 0 
0 0 0 0 0 0 0 0 0 
0 0 0 0 0 0 0 0 0 
0 0 0 0 0 0 0 0 0 
0 0 0 0 0 0 0 0 0 
0 0 0 0 0 0 0 0 0 
0 0 0 0 0 0 0 0 0 
0 0 0 0 0 0 0 0 0 
0 0 0 0 0 0 0 0 0 
0 0 0 0 0 0 0 0 0 
0 0 0 0 0 0 0 0 0 
0 0 0 0 0 0 0 0 0 
0 0 0 0 0 0 0 0 0 
0 0 0 0 0 0 0 0 0 
0 0 0 0 0 0 0 0 0 
0 0 0 0 0 0 0 0 0 
0 0 0 0 0 0 0 0 0 
0 0 0 0 0 0 0 0 0 
0 0 0 0 0 0 0 0 0 
0 0 0 0 0 0 0 0 0 
0 0 0 0 0 0 0 0 0 
0 0 0 0 0 0 0 0 0 
0 0 0 0 0 0 0 0 0 
0 0 0 0 0 0 0 0 0 
0 0 0 0 0 0 0 0 0 
0 0 0 0 0 0 0 0 0 
0 0 0 0 0 0 0 0 0 
0 0 0 0 0 0 0 0 0 
0 0 0 0 0 0 0 0 0 
0 0 0 0 0 0 0 0 0 
0 0 0 0 0 0 0 0 0 
0 0 0 0 0 0 0 0 0 
0 0 0 0 0 0 0 0 0 
0 0 0 0 0 0 0 0 0 
0 0 0 0 0 0 0 0 0 
0 0 0 0 0 0 0 0 0 
0 0 0 0 0 0 0 0 0 
0 0 0 0 0 0 0 0 0 
0 0 0 0 0 0 0 0 0 
0 0 0 0 0 0 0 0 0 
0 0 0 0 0 0 0 0 0 
0 0 0 0 0 0 0 0 0 
0 0 0 0 0 0 0 0 0 
0 0 0 0 0 0 0 0 0 
0 0 0 0 0 0 0 0 0 
0 0 0 0 0 0 0 0 0 
0 0 0 0 0 0 0 0 0 
0 0 0 0 0 0 0 0 0 
0 0 0 0 0 0 0 0 0 
0 0 0 0 0 0 0 0 0 
0 0 0 0 0 0 0 0 0 
0 0 0 0 0 0 0 0 0 
0 0 0 0 0 0 0 0 0 
0 0 0 0 0 0 0 0 0 
0 0 0 0 0 0 0 0 0 
0 0 0 0 0 0 0 0 0 
0 0 0 0 0 0 0 0 0 
0 0 0 0 0 0 0 0 0 
0 0 0 0 0 0 0 0 0 
0 0 0 0 0 0 0 0 0 
0 0 0 0 0 0 0 0 0 
0 0 0 0 0 0 0 0 0 
0 0 0 0 0 0 0 0 0 
0 0 0 0 0 0 0 0 0 
0 0 0 0 0 0 0 0 0 
0 0 0 0 0 0 0 0 0 
0 0 0 0 0 0 0 0 0 
0 0 0 0 0 0 0 0 0 
0 0 0 0 0 0 0 0 0 
0 0 0 0 0 0 0 0 0 
0 0 0 0 0 0 0 0 0 
0 0 0 0 0 0 0 0 0 
0 0 0 0 0 0 0 0 0 
0 0 0 0 0 0 0 0 0 
0 0 0 0 0 0 0 0 0 
0 0 0 0 0 0 0 0 0 
0 0 0 0 0 0 0 0 0 
0 0 0 0 0 0 0 0 0 
0 0 0 0 0 0 0 0 0 
0 0 0 0 0 0 0 0 0 

v 3 510 double
0.070544 0.028212 -1.18747e-05 0.0271052 -0.0631928 -4.65202e-13 0.0281113 -0.0250751 -0.0603566 
-0.0392098 -5.11518e-06 -8.59363e-14 -0.00102806 -0.00413373 1.58978e-05 0.0558993 0.0467931 -0.0450679 
-0.018251 -0.0148075 -2.39973e-06 0.00189945 -0.037875 -3.45219e-06 0.00197951 -0.0970163 -7.76337e-12 
-0.0101488 0.0222898 -0.0151714 -0.00178199 0.0269407 0.00293544 0.0123302 0.0296689 -0.00724775 
0.0472182 -0.00290467 2.93937e-05 0.021968 -0.030152 -3.70121e-06 0.025076 0.0135168 -2.21873e-14 
-0.0466799 0.0105071 -3.58406e-11 -0.0378342 0.0307626 0.00895922 -0.00253097 0.00141361 0.000620845 
-0.0237027 -0.0632114 0.00257505 0.00623502 -0.0180412 -4.65203e-13 0.033395 -0.033049 0.0651918 
-0.0162051 -0.0118654 3.97747e-11 -0.017332 0.00952249 0.0439841 0.0123882 0.0112941 8.63964e-10 
-0.100605 0.161655 0.0935897 -0.115419 -0.0678664 -0.0473762 -0.0471676 0.00453642 -3.88806e-13 
0.0435139 -0.076374 -2.27271e-14 -0.00350843 -0.0027258 7.91458e-14 0.00527099 0.0187773 2.42395e-07 
-0.146751 0.0611219 2.93328e-13 -0.106589 -0.0288527 0.0112137 -0.015452 -0.105567 6.91303e-13 
-0.0265105 -0.029404 -0.69213 0.0476674 -0.0116555 0.00212708 0.0453642 0.0630222 -4.98197e-11 
-0.0280793 -0.108169 0.0175588 -0.0676447 -0.122473 6.72593e-13 -0.131331 -0.134295 -0.0177385 
-0.016211 -0.197996 -0.00306334 0.00565966 0.0355142 -0.00297968 0.0189988 0.0258469 0.00143934 
0.0403215 0.0572362 0.000247831 0.0449447 0.0293009 -0.00166968 0.184161 0.00375966 0.0846874 
0.210789 -0.0140347 0.000265577 -0.0668631 -0.0376601 -0.00227155 -0.104424 -0.143093 0.0848694 
-0.135599 -0.0967627 0.223976 0.00418323 -0.0385747 -1.62433e-07 0.0386814 0.0420988 -0.000277556 
0.0210142 -0.00355959 6.09383e-13 0.028682 0.0234758 0.165045 0.0741382 -0.0399044 -0.134946 
0.00873593 0.0367944 -0.0014159 0.107894 -0.0367351 -2.02409e-07 0.0750411 0.00159999 2.96763e-13 
-0.0294279 -0.0193678 0.0253758 -0.0290585 0.0929043 0.0061966 -0.0426249 0.0180168 -9.63218e-10 
0.0571278 -0.0162611 -0.00644828 0.0323716 0.011453 8.65077e-07 -0.00195522 -0.0327465 8.88584e-05 
0.0656188 -0.0452215 -0.000104264 0.0175931 -0.0231052 -1.35819e-06 0.00387685 -0.01628 7.41285e-10 
-0.033153 -0.0353216 -0.0117974 -0.0930702 0.0246818 -0.00155324 -0.119395 0.0335317 0.0296017 
-0.0912888 -0.118736 -2.75569e-13 0.0189586 0.0386531 8.48409e-10 0.0312159 0.0169357 -3.37352e-06 
0.00603478 -0.0393331 2.87686e-07 -0.104914 0.228438 0.0025556 0.0910898 0.0623228 -0.0799798 
0.224166 -0.205847 -0.000344548 -0.0243041 -0.00242131 -0.0168095 -0.022763 -0.0347262 -0.000339238 
-0.0103953 -0.0369555 -7.05985e-05 -0.0288788 -0.0470995 -0.00571549 -0.20278 0.063414 8.72172e-05 
-0.0482167 0.100476 0.0368278 0.107423 0.0913316 3.56539e-13 0.0129243 0.00565197 5.42072e-07 
0.059773 -0.0630045 -0.0166909 0.0546041 -0.0152962 -8.27111e-09 -0.0130981 -0.0411612 0.000576335 
0.0212657 -0.0173309 2.02041e-13 -0.00250931 0.0196668 1.41831e-06 0.101049 -0.059403 0.108458 
0.286396 -0.049443 -1.82187e-05 0.143805 0.152095 0.0069774 -0.00893196 -0.0109592 -0.000166733 
0.0403743 -0.102883 -0.000651037 0.0170467 -0.00539937 7.11136e-07 0.077236 -0.0914705 0.0210413 
-0.0560988 -0.0685354 0.000137234 -0.0475077 -0.0699132 0.0439033 -0.0213925 0.0132841 0.0801377 
0.0101372 -0.0813807 0.0658241 0.0122482 0.113531 0.000139815 -0.0605706 -0.0624878 0.0201366 
-0.147484 -0.191134 0.0138127 0.0752462 -0.0764077 -0.000379941 -0.139 -0.0279459 -0.00769379 
0.024276 0.0898677 -0.00530967 -0.00307446 -0.142916 -0.0077475 -0.0972827 -0.0645995 0.0144323 
-0.0254556 -0.0906191 -5.64499e-13 -0.00715213 -0.0288498 -0.00908675 0.184059 -0.0563098 0.0404211 
0.0319275 0.0746427 -2.5417e-06 0.0416497 -0.142683 -0.0442102 0.16985 -0.261656 0.193364 
0.0463782 -0.0825129 0.0256663 0.167172 -0.131439 0.00049529 0.0164335 -0.0859981 -0.000621933 
0.0622729 -0.0701342 0.202131 0.0240695 0.010829 -0.00338521 -0.0750951 -0.121236 -0.010641 
-0.0598085 -0.0698104 0.125876 0.0953394 0.0821064 -3.3878e-13 -0.0500543 -0.0158899 -1.49147e-13 