# vtk DataFile Version 4.0
Generated by LIGGGHTS
ASCII
DATASET POLYDATA
POINTS 1111 float
-0.0141823 -0.0476078 0.0811214 -0.0108944 -0.0480219 0.0811175 -0.00807998 -0.0490589 0.0811201 
-0.00366746 -0.0495009 0.0811209 0.000152488 -0.0485822 0.0820982 0.00402922 -0.0485197 0.0811314 
0.00713798 -0.0490881 0.0811205 0.0103838 -0.0483908 0.081121 0.0139779 -0.0474688 0.0811701 
-0.0207425 -0.0451522 0.0814084 -0.0178053 -0.0463304 0.0811187 -0.0132314 -0.0446219 0.0811203 
-0.00894304 -0.0446798 0.0821153 -0.00575849 -0.0471263 0.0811171 -0.00291983 -0.0461465 0.0811205 
-0.00511977 -0.044079 0.081116 0.00126588 -0.044847 0.0811206 0.00419024 -0.0455262 0.0811202 
0.0108774 -0.0454012 0.0817851 0.0140444 -0.0444644 0.0811326 0.0169207 -0.0467453 0.0811199 
0.0196763 -0.0455664 0.0811173 0.0224191 -0.0443457 0.0811205 -0.0285 -0.0406292 0.0811195 
-0.0249514 -0.0429333 0.0811206 -0.0219921 -0.0424382 0.0811206 -0.0180276 -0.0433422 0.0811177 
-0.0152785 -0.0420601 0.081121 -0.00662566 -0.0414943 0.0811139 -0.000966548 -0.0427975 0.081121 
0.0019517 -0.0418836 0.0811162 0.00695075 -0.0428065 0.0821183 0.0125982 -0.0419089 0.0817214 
0.0169185 -0.0435489 0.0811205 0.0163473 -0.040491 0.0811163 0.0198469 -0.0424858 0.0811205 
0.02519 -0.0415861 0.0821165 0.0288785 -0.0404465 0.0811147 -0.0308916 -0.0388208 0.0811205 
-0.0331908 -0.0368952 0.0811202 -0.0279192 -0.0376809 0.0811205 -0.0255911 -0.0399072 0.08112 
-0.0156593 -0.0390808 0.0811203 -0.0127375 -0.0383939 0.0811157 -0.00939028 -0.0402728 0.0811205 
-0.00748454 -0.037927 0.0811203 -0.00430147 -0.0396062 0.0811201 0.000107646 -0.038402 0.0821452 
0.00395698 -0.0396551 0.0811203 0.00628708 -0.0377678 0.0811201 0.0100011 -0.0388395 0.0821399 
0.0137577 -0.0379413 0.0811199 0.0188159 -0.0387084 0.0811207 0.0215448 -0.040012 0.0811205 
0.0242676 -0.0370317 0.081117 0.0272453 -0.0372137 0.0811173 -0.0351328 -0.0335447 0.0821183 
-0.0301467 -0.0343178 0.0821139 -0.0262858 -0.0346388 0.0811193 -0.0239899 -0.0366048 0.0811198 
-0.0213828 -0.0337652 0.0811476 -0.0195434 -0.0361322 0.0811165 -0.0176908 -0.0337788 0.081118 
-0.0156981 -0.0360208 0.0811208 -0.0134525 -0.0338792 0.0811205 -0.0111315 -0.0358599 0.0811205 
-0.00811642 -0.0348563 0.0811205 -0.00408351 -0.0356757 0.0821183 0.00352581 -0.0365939 0.081119 
0.00933776 -0.0350223 0.0811205 0.0142989 -0.034741 0.0811204 0.0165188 -0.0367794 0.0811166 
0.0208192 -0.0353107 0.0821227 0.0261079 -0.0334413 0.0821185 0.033245 -0.0335319 0.0811151 
0.0362723 -0.0338821 0.0811346 -0.0384003 -0.0314327 0.0811205 -0.0274191 -0.0301144 0.0821171 
-0.024193 -0.0322639 0.0811192 -0.0210791 -0.0307494 0.0811206 -0.0172634 -0.0299333 0.0821187 
-0.0131969 -0.0308655 0.0811205 -0.0105285 -0.0329146 0.0811205 -0.00648569 -0.0312401 0.0820936 
0.00379084 -0.0299708 0.0811205 0.0117566 -0.0330985 0.0811149 0.012682 -0.0302535 0.0811122 
0.0213617 -0.0306657 0.0811175 0.0300115 -0.0332148 0.0811188 0.033827 -0.0305932 0.0811189 
0.0378514 -0.0303415 0.0821178 -0.0420024 -0.0264275 0.0811205 -0.0402526 -0.0290713 0.0811205 
-0.0367448 -0.0289263 0.0811205 -0.0327084 -0.0291725 0.0821165 -0.0293936 -0.0267728 0.0811205 
-0.0235733 -0.0290581 0.0811205 -0.0209005 -0.0272896 0.0811205 -0.0130476 -0.0269254 0.0821168 
-0.0104034 -0.0297672 0.0811203 -0.0045559 -0.0268688 0.0811789 -0.00133592 -0.0296694 0.082119 
0.0026392 -0.0272007 0.0811205 0.00853611 -0.0283235 0.0821029 0.0122546 -0.0272275 0.0811208 
0.0156636 -0.0289263 0.0811205 0.0194822 -0.0267581 0.0821182 0.0233376 -0.0273171 0.0811205 
0.0282451 -0.0289185 0.0821102 0.0344106 -0.0267138 0.082118 0.0409393 -0.0279904 0.0811205 
-0.0439269 -0.0230487 0.0811203 -0.0405867 -0.0237015 0.0811187 -0.0389278 -0.0262697 0.0811158 
-0.0354049 -0.0262339 0.0811205 -0.035234 -0.0231323 0.0811184 -0.031853 -0.025036 0.0811205 
-0.0295199 -0.0230948 0.0811198 -0.0257044 -0.0254194 0.082118 -0.0176086 -0.0236651 0.0811205 
-0.0124304 -0.0228289 0.0812224 -0.0074836 -0.0261501 0.0811208 -0.00681742 -0.0230216 0.0811191 
-0.000129956 -0.0257915 0.0811236 -0.00103821 -0.0228933 0.0811206 0.00510265 -0.0254826 0.0811205 
0.0103725 -0.0232174 0.0821134 0.0146103 -0.0253335 0.0812517 0.0178026 -0.023266 0.0811207 
0.0245515 -0.0245355 0.0811205 0.0308498 -0.0251905 0.0811201 0.038268 -0.0257774 0.0811134 
0.0426934 -0.0251764 0.0811206 -0.0451954 -0.020331 0.0811193 -0.041235 -0.0198009 0.0821165 
-0.0380765 -0.0220593 0.0811205 -0.0321863 -0.0216426 0.0811169 -0.0275993 -0.0207726 0.0811206 
-0.0240232 -0.0219297 0.0811202 -0.0211041 -0.0212167 0.0811208 -0.0186328 -0.019641 0.0817729 
-0.0147967 -0.0206534 0.0811205 -0.0101928 -0.0199139 0.0811209 -0.00681498 -0.020154 0.081985 
-0.00311263 -0.019741 0.0811205 0.0005064 -0.0200977 0.0811205 0.00360937 -0.0199583 0.0811205 
0.00559508 -0.0223643 0.0811206 0.00657609 -0.0195278 0.0811201 0.0147864 -0.0211083 0.0811205 
0.0205986 -0.0202674 0.081212 0.023769 -0.0216308 0.0811205 0.0276213 -0.0211011 0.0821183 
0.0318447 -0.0206444 0.0811205 0.0360163 -0.021646 0.0821197 0.0404237 -0.0223383 0.0811164 
0.0424953 -0.0197094 0.0811188 0.0442412 -0.0225742 0.0811194 0.0454946 -0.0197182 0.0811203 
-0.0457567 -0.0165019 0.0821186 -0.0391241 -0.0165421 0.0811096 -0.0357351 -0.0189382 0.0821189 
-0.0311734 -0.0188242 0.0811145 -0.0324226 -0.0159343 0.0811204 -0.0271529 -0.0177211 0.0811171 
-0.0241059 -0.0189146 0.0811203 -0.0242371 -0.0159182 0.0811407 -0.0213205 -0.0176012 0.0811205 
-0.0162033 -0.0180036 0.0811214 -0.018524 -0.0161053 0.0811628 -0.0136174 -0.0163059 0.0811637 
-0.00843946 -0.0174778 0.0811206 -0.00533838 -0.0171962 0.0811205 0.00197247 -0.0168857 0.0811205 
0.00578064 -0.0166412 0.0812997 0.00988751 -0.0171836 0.08212 0.0137722 -0.0177959 0.0811205 
0.0169219 -0.0181252 0.0811382 0.0211094 -0.0161155 0.0821183 0.0245656 -0.0183866 0.0811203 
0.0273164 -0.0171847 0.0811209 0.0301844 -0.0180959 0.0811205 0.0337671 -0.0182337 0.0811205 
0.0360068 -0.0162379 0.0811205 0.0382757 -0.0184268 0.0811205 0.0467925 -0.0166661 0.0811162 
-0.0418251 -0.0134027 0.0821185 -0.0379659 -0.0136838 0.0811187 -0.0350675 -0.0144552 0.0811204 
-0.0269676 -0.0146541 0.0811208 -0.0216695 -0.0143664 0.0811339 -0.0156798 -0.0138301 0.0811205 
-0.00859212 -0.0144712 0.0811205 -0.000804746 -0.0155758 0.0812665 -0.00121613 -0.0125978 0.0811204 
0.00748721 -0.014121 0.0811772 0.018075 -0.0136859 0.0811203 0.0249073 -0.015319 0.0811205 
0.0319804 -0.015516 0.0811042 0.0343985 -0.0134068 0.0811277 0.0377644 -0.0137573 0.0811205 
0.0413045 -0.0156587 0.082118 0.0449363 -0.0143028 0.0811204 0.0473771 -0.0124746 0.0811196 
-0.0467152 -0.0114703 0.0821184 -0.0364732 -0.0105742 0.0811109 -0.0333709 -0.0119808 0.0811191 
-0.0259674 -0.0118106 0.0811146 -0.0192042 -0.0110235 0.082114 -0.0154194 -0.0101231 0.0811216 
-0.0110747 -0.0114332 0.0811205 -0.00535345 -0.0118133 0.0821183 0.00267962 -0.010675 0.0811205 
0.00551861 -0.00903034 0.081124 0.0145769 -0.0118491 0.0821163 0.025863 -0.0115378 0.0821094 
0.0299118 -0.0118177 0.0811414 0.0333055 -0.00958859 0.0821182 0.0370988 -0.0104167 0.0811164 
0.0400953 -0.0118398 0.0811205 0.0440069 -0.0105374 0.0821194 0.0484239 -0.00966535 0.0811269 
-0.0489342 -0.00790266 0.0811187 -0.045927 -0.00764517 0.0811225 -0.0421167 -0.00836849 0.0821208 
-0.0374836 -0.00772163 0.0811201 -0.0333512 -0.00604846 0.0811205 -0.0306204 -0.00766201 0.0811155 
-0.0247146 -0.00815341 0.0821142 -0.0177344 -0.00727948 0.0811208 -0.0128717 -0.00853086 0.0811206 
-0.00914247 -0.00742348 0.082118 -0.0052153 -0.00776862 0.0811289 -0.00015579 -0.00875765 0.0811148 
0.0146089 -0.00734605 0.0811102 0.0229496 -0.00747962 0.0821163 0.0287499 -0.0074636 0.0821175 
0.0401768 -0.00800979 0.0811205 0.0428031 -0.00672195 0.0819582 0.0491625 -0.00675975 0.0811192 
-0.0493386 -0.00481801 0.0819273 -0.0467054 -0.00326019 0.0811205 -0.044009 -0.00466468 0.081697 
-0.0413967 -0.00289847 0.0811162 -0.0388245 -0.0050002 0.0811835 -0.0382578 -0.00212405 0.0819494 
-0.0325704 -0.00297084 0.0811133 -0.0273534 -0.00531232 0.0811192 -0.0248135 -0.00310634 0.0811207 
-0.0209995 -0.00427311 0.0820935 -0.0145043 -0.00499816 0.0821138 -0.0104247 -0.00369583 0.08112 
-0.00756073 -0.00281072 0.081124 -0.00472957 -0.00380271 0.0811205 -0.000919471 -0.00496613 0.0821123 
0.00406619 -0.00459465 0.0821164 0.00788437 -0.00514078 0.0811055 0.00907817 -0.00178637 0.0811205 
0.0113349 -0.00435803 0.0810965 0.0187715 -0.00464893 0.0821183 0.0218668 -0.00174322 0.0811205 
0.0254925 -0.0031826 0.0821165 0.0299421 -0.00378013 0.0811201 0.0329448 -0.00322838 0.0811171 
0.0360802 -0.00318319 0.0811174 0.0400437 -0.00379188 0.0821174 0.0458496 -0.00411143 0.0821169 
0.0495901 -0.00301337 0.0811205 -0.0493325 -0.00118542 0.0811208 -0.0440937 -0.00155197 0.0811171 
-0.0467312 0.000438656 0.0811204 -0.0412789 0.000341965 0.0811335 -0.0368486 0.00161191 0.08112 
-0.0330229 0.000990871 0.0821162 -0.027491 -0.00174947 0.0811599 -0.028996 0.00084511 0.0811206 
-0.0249738 0.000452886 0.0811205 -0.0211514 0.000318803 0.0812993 -0.0182605 0.000243313 0.0820788 
-0.0159235 -0.00133217 0.0810789 -0.00904196 -0.000198478 0.0811381 -0.00516883 -0.000684764 0.0811205 
-0.00189586 -0.000252959 0.0812087 0.00583335 -0.000680306 0.0811188 0.00844338 0.00123614 0.0811206 
0.0114523 0.00133937 0.0811493 0.012998 -0.00123744 0.0811244 0.0166924 -6.38975e-05 0.0821168 
0.0291174 -0.000895606 0.0811205 0.0315963 0.000794892 0.0811205 0.0345811 0.00111452 0.0811204 
0.0378079 -0.000494728 0.0811205 0.0409186 1.07046e-05 0.0811176 0.0438737 -0.000762716 0.0811204 
0.0486241 0.000755764 0.0821168 -0.0494673 0.00212307 0.0811146 -0.0447897 0.00482614 0.0811195 
-0.0424587 0.00304651 0.0817633 -0.0395226 0.00302643 0.0811186 -0.0267804 0.00393423 0.0823877 
-0.0228262 0.00393818 0.0817439 -0.0196614 0.00355139 0.0820384 -0.0156777 0.00347522 0.0823583 
-0.0120773 0.00476241 0.0811272 -0.0094236 0.00279057 0.0811658 -0.00459139 0.00323374 0.0821206 
[...]
POINT_DATA 1111
FIELD FieldData 7
id 1 1111 int
96 32 299 287 171 90 240 46 95 
582 290 199 511 189 390 300 59 70 
12 394 18 396 98 457 76 6 262 
39 624 137 166 211 87 213 45 19 
272 305 153 178 239 431 250 204 750 
342 597 371 366 515 423 364 375 33 
50 444 94 2 316 266 547 273 542 
77 407 249 207 208 541 293 650 592 
398 258 51 238 113 310 280 613 412 
252 531 220 580 634 549 21 256 167 
184 383 173 278 222 338 468 607 260 
548 497 182 421 296 35 743 158 165 
359 498 63 274 108 428 84 202 164 
286 259 161 337 672 690 100 429 13 
234 354 186 426 596 110 187 48 132 
263 352 392 496 304 506 556 517 870 
662 318 237 647 595 180 495 478 157 
74 221 179 86 216 357 144 191 4 
279 622 218 329 395 36 193 264 648 
101 480 291 699 489 492 229 628 353 
626 463 69 725 217 128 134 115 330 
314 351 151 138 416 554 139 606 702 
377 493 255 67 102 10 185 740 194 
331 271 546 38 30 621 686 834 43 
11 66 174 454 372 265 154 168 236 
88 349 369 385 738 507 53 275 491 
114 422 618 505 494 192 58 356 545 
560 85 833 815 543 64 146 333 469 
780 336 400 195 637 636 188 680 529 
459 535 312 355 160 334 288 368 148 
253 116 89 233 381 609 532 62 729 
676 175 825 557 276 528 44 230 387 
567 203 324 623 241 315 130 149 124 
365 325 120 9 670 641 867 162 323 
367 852 425 784 91 602 658 350 145 
105 306 610 447 402 794 855 756 769 
55 93 111 691 430 640 707 573 735 
518 257 201 143 49 209 107 83 405 
141 22 451 242 681 751 289 684 432 
732 728 659 710 343 42 563 268 382 
210 455 159 26 696 465 711 587 840 
301 502 715 409 321 155 467 399 227 
248 339 61 235 470 225 126 483 817 
625 651 674 703 655 839 550 503 788 
326 14 448 420 393 267 302 466 57 
5 441 513 633 716 717 481 224 534 
440 599 555 446 435 652 471 638 231 
122 434 327 29 1 530 415 270 726 
127 581 521 413 516 598 389 456 223 
309 298 219 508 348 373 574 121 417 
20 292 370 578 524 317 436 533 361 
635 564 439 245 477 140 41 47 25 
34 404 8 376 586 629 106 579 536 
196 205 78 442 135 152 176 571 117 
443 689 246 488 380 60 136 72 200 
198 129 103 244 232 214 133 71 378 
150 254 419 340 27 344 147 37 177 
118 131 170 285 484 461 52 499 112 
81 7 142 75 391 458 414 215 335 
212 445 109 56 16 281 163 190 226 
123 243 251 31 741 479 358 228 824 
766 24 79 303 619 462 757 682 758 
667 704 645 816 119 746 688 831 269 
708 92 675 408 752 539 862 849 649 
665 277 406 523 544 568 723 677 345 
565 620 553 611 826 827 820 283 779 
841 522 562 660 760 346 17 386 709 
742 473 608 603 730 308 795 721 384 
332 600 576 594 692 360 197 54 646 
763 551 464 713 472 631 724 899 617 
80 476 908 363 876 685 374 764 601 
612 588 527 552 800 774 169 693 889 
883 630 844 790 773 438 747 838 490 
671 183 403 755 733 806 519 801 247 
540 878 695 172 947 485 575 525 520 
261 942 901 956 934 957 857 104 767 
561 322 879 805 829 797 615 510 727 
739 125 437 885 643 931 97 15 379 
859 65 679 509 475 765 311 206 890 
863 749 698 656 501 865 753 888 605 
822 313 762 653 734 583 920 783 538 
572 654 687 3 832 819 722 181 941 
82 453 906 589 697 745 558 782 712 
776 714 864 818 737 789 347 793 632 
411 504 460 68 397 450 669 804 781 
99 23 500 424 585 807 754 768 487 
892 40 282 569 891 664 474 959 593 
828 799 808 73 701 791 427 401 836 
803 869 482 570 388 663 328 559 683 
627 452 307 661 486 744 787 948 845 
903 786 642 614 897 894 694 718 362 
830 759 875 798 295 853 433 868 916 
905 590 958 297 811 917 813 736 449 
915 294 772 935 719 909 706 925 946 
912 952 927 861 837 814 882 319 720 
566 514 910 792 866 657 950 893 873 
809 954 28 851 965 777 921 871 955 
810 770 802 902 918 748 843 678 341 
926 591 896 731 933 945 860 856 284 
907 835 577 872 700 761 705 847 796 
913 771 668 320 904 673 616 639 775 
666 858 850 911 848 877 914 943 842 
895 944 930 919 156 953 967 940 936 
937 854 964 512 929 604 939 949 410 
923 821 884 537 938 898 785 846 951 
922 778 971 924 823 418 644 928 880 
932 526 969 900 874 584 881 812 960 
963 970 966 961 968 981 887 962 972 
983 979 977 980 974 978 886 976 982 
984 975 973 989 991 988 990 986 987 
997 995 994 985 992 996 993 1009 1002 
999 1003 1008 1010 998 1007 1001 1000 1004 
1006 1005 1021 1014 1015 1013 1020 1023 1017 
1011 1019 1018 1035 1012 1016 1022 1025 1030 
1029 1033 1028 1036 1031 1026 1032 1034 1027 
1024 1043 1048 1045 1046 1047 1038 1040 1039 
1044 1042 1041 1037 1049 1060 1054 1056 1061 
1058 1055 1052 1059 1051 1050 1057 1053 1062 
1069 1063 1070 1064 1065 1073 1066 1072 1068 
1067 1081 1071 1085 1074 1077 1083 1082 1079 
1076 1080 1084 1078 1095 1075 1087 1093 1086 
1092 1097 1091 1098 1089 1094 1088 1096 1090 
1103 1106 1111 1107 1101 1105 1108 1104 1110 
1100 1099 1109 1102 
type 1 1111 int
1 1 1 1 1 1 1 1 1 
1 1 1 1 1 1 1 1 1 
1 1 1 1 1 1 1 1 1 
1 1 1 1 1 1 1 1 1 
1 1 1 1 1 1 1 1 1 
1 1 1 1 1 1 1 1 1 
1 1 1 1 1 1 1 1 1 
1 1 1 1 1 1 1 1 1 
1 1 1 1 1 1 1 1 1 
1 1 1 1 1 1 1 1 1 
1 1 1 1 1 1 1 1 1 
1 1 1 1 1 1 1 1 1 
1 1 1 1 1 1 1 1 1 
1 1 1 1 1 1 1 1 1 
1 1 1 1 1 1 1 1 1 
1 1 1 1 1 1 1 1 1 
1 1 1 1 1 1 1 1 1 
1 1 1 1 1 1 1 1 1 
1 1 1 1 1 1 1 1 1 
1 1 1 1 1 1 1 1 1 
1 1 1 1 1 1 1 1 1 
1 1 1 1 1 1 1 1 1 
1 1 1 1 1 1 1 1 1 
1 1 1 1 1 1 1 1 1 
1 1 1 1 1 1 1 1 1 
1 1 1 1 1 1 1 1 1 
1 1 1 1 1 1 1 1 1 
1 1 1 1 1 1 1 1 1 
1 1 1 1 1 1 1 1 1 
1 1 1 1 1 1 1 1 1 
1 1 1 1 1 1 1 1 1 
1 1 1 1 1 1 1 1 1 
1 1 1 1 1 1 1 1 1 
1 1 1 1 1 1 1 1 1 
1 1 1 1 1 1 1 1 1 
1 1 1 1 1 1 1 1 1 
1 1 1 1 1 1 1 1 1 
1 1 1 1 1 1 1 1 1 
1 1 1 1 1 1 1 1 1 
1 1 1 1 1 1 1 1 1 
1 1 1 1 1 1 1 1 1 
1 1 1 1 1 1 1 1 1 
1 1 1 1 1 1 1 1 1 
1 1 1 1 1 1 1 1 1 
1 1 1 1 1 1 1 1 1 
1 1 1 1 1 1 1 1 1 
1 1 1 1 1 1 1 1 1 
1 1 1 1 1 1 1 1 1 
1 1 1 1 1 1 1 1 1 
1 1 1 1 1 1 1 1 1 
1 1 1 1 1 1 1 1 1 
1 1 1 1 1 1 1 1 1 
1 1 1 1 1 1 1 1 1 
1 1 1 1 1 1 1 1 1 
1 1 1 1 1 1 1 1 1 
1 1 1 1 1 1 1 1 1 
1 1 1 1 1 1 1 1 1 
1 1 1 1 1 1 1 1 1 
1 1 1 1 1 1 1 1 1 
1 1 1 1 1 1 1 1 1 
1 1 1 1 1 1 1 1 1 
1 1 1 1 1 1 1 1 1 
1 1 1 1 1 1 1 1 1 
1 1 1 1 1 1 1 1 1 
1 1 1 1 1 1 1 1 1 
1 1 1 1 1 1 1 1 1 
1 1 1 1 1 1 1 1 1 
1 1 1 1 1 1 1 1 1 
1 1 1 1 1 1 1 1 1 
1 1 1 1 1 1 1 1 1 
1 1 1 1 1 1 1 1 1 
1 1 1 1 1 1 1 1 1 
1 1 1 1 1 1 1 1 1 
1 1 1 1 1 1 1 1 1 
1 1 1 1 1 1 1 1 1 
1 1 1 1 1 1 1 1 1 
1 1 1 1 1 1 1 1 1 
1 1 1 1 1 1 1 1 1 
1 1 1 1 1 1 1 1 1 
1 1 1 1 1 1 1 1 1 
1 1 1 1 1 1 1 1 1 
1 1 1 1 1 1 1 1 1 
1 1 1 1 1 1 1 1 1 
1 1 1 1 1 1 1 1 1 
1 1 1 1 1 1 1 1 1 
1 1 1 1 1 1 1 1 1 
1 1 1 1 1 1 1 1 1 
1 1 1 1 1 1 1 1 1 
1 1 1 1 1 1 1 1 1 
1 1 1 1 1 1 1 1 1 
1 1 1 1 1 1 1 1 1 
1 1 1 1 1 1 1 1 1 
1 1 1 1 1 1 1 1 1 
1 1 1 1 1 1 1 1 1 
1 1 1 1 1 1 1 1 1 
1 1 1 1 1 1 1 1 1 
1 1 1 1 1 1 1 1 1 
1 1 1 1 1 1 1 1 1 
1 1 1 1 1 1 1 1 1 
1 1 1 1 1 1 1 1 1 
1 1 1 1 1 1 1 1 1 
1 1 1 1 1 1 1 1 1 
1 1 1 1 1 1 1 1 1 
1 1 1 1 1 1 1 1 1 
1 1 1 1 1 1 1 1 1 
1 1 1 1 1 1 1 1 1 
1 1 1 1 1 1 1 1 1 
1 1 1 1 1 1 1 1 1 
1 1 1 1 1 1 1 1 1 
1 1 1 1 1 1 1 1 1 
1 1 1 1 1 1 1 1 1 
1 1 1 1 1 1 1 1 1 
1 1 1 1 1 1 1 1 1 
1 1 1 1 1 1 1 1 1 
1 1 1 1 1 1 1 1 1 
1 1 1 1 1 1 1 1 1 
1 1 1 1 1 1 1 1 1 
1 1 1 1 1 1 1 1 1 
1 1 1 1 1 1 1 1 1 
1 1 1 1 1 1 1 1 1 
1 1 1 1 1 1 1 1 1 
1 1 1 1 1 1 1 1 1 
1 1 1 1 1 1 1 1 1 
1 1 1 1 
i 3 1111 int
0 0 0 0 0 0 0 0 0 
0 0 0 0 0 0 0 0 0 
0 0 0 0 0 0 0 0 0 
0 0 0 0 0 0 0 0 0 
0 0 0 0 0 0 0 0 0 
0 0 0 0 0 0 0 0 0 
0 0 0 0 0 0 0 0 0 
0 0 0 0 0 0 0 0 0 
0 0 0 0 0 0 0 0 0 
0 0 0 0 0 0 0 0 0 
0 0 0 0 0 0 0 0 0 
0 0 0 0 0 0 0 0 0 
0 0 0 0 0 0 0 0 0 
0 0 0 0 0 0 0 0 0 
0 0 0 0 0 0 0 0 0 
0 0 0 0 0 0 0 0 0 
0 0 0 0 0 0 0 0 0 
0 0 0 0 0 0 0 0 0 
0 0 0 0 0 0 0 0 0 
0 0 0 0 0 0 0 0 0 
0 0 0 0 0 0 0 0 0 
0 0 0 0 0 0 0 0 0 
0 0 0 0 0 0 0 0 0 
0 0 0 0 0 0 0 0 0 
0 0 0 0 0 0 0 0 0 
0 0 0 0 0 0 0 0 0 
0 0 0 0 0 0 0 0 0 
0 0 0 0 0 0 0 0 0 
0 0 0 0 0 0 0 0 0 
0 0 0 0 0 0 0 0 0 
0 0 0 0 0 0 0 0 0 
0 0 0 0 0 0 0 0 0 
0 0 0 0 0 0 0 0 0 
0 0 0 0 0 0 0 0 0 
0 0 0 0 0 0 0 0 0 
0 0 0 0 0 0 0 0 0 
0 0 0 0 0 0 0 0 0 
0 0 0 0 0 0 0 0 0 
0 0 0 0 0 0 0 0 0 
0 0 0 0 0 0 0 0 0 
0 0 0 0 0 0 0 0 0 
0 0 0 0 0 0 0 0 0 
0 0 0 0 0 0 0 0 0 
0 0 0 0 0 0 0 0 0 
0 0 0 0 0 0 0 0 0 
0 0 0 0 0 0 0 0 0 
0 0 0 0 0 0 0 0 0 
0 0 0 0 0 0 0 0 0 
0 0 0 0 0 0 0 0 0 
0 0 0 0 0 0 0 0 0 
0 0 0 0 0 0 0 0 0 
0 0 0 0 0 0 0 0 0 
0 0 0 0 0 0 0 0 0 
0 0 0 0 0 0 0 0 0 
0 0 0 0 0 0 0 0 0 
0 0 0 0 0 0 0 0 0 
0 0 0 0 0 0 0 0 0 
0 0 0 0 0 0 0 0 0 
0 0 0 0 0 0 0 0 0 
0 0 0 0 0 0 0 0 0 
0 0 0 0 0 0 0 0 0 
0 0 0 0 0 0 0 0 0 
0 0 0 0 0 0 0 0 0 
0 0 0 0 0 0 0 0 0 
0 0 0 0 0 0 0 0 0 
0 0 0 0 0 0 0 0 0 
0 0 0 0 0 0 0 0 0 
0 0 0 0 0 0 0 0 0 
0 0 0 0 0 0 0 0 0 
0 0 0 0 0 0 0 0 0 
0 0 0 0 0 0 0 0 0 
0 0 0 0 0 0 0 0 0 
0 0 0 0 0 0 0 0 0 
0 0 0 0 0 0 0 0 0 
0 0 0 0 0 0 0 0 0 
0 0 0 0 0 0 0 0 0 
0 0 0 0 0 0 0 0 0 
0 0 0 0 0 0 0 0 0 
0 0 0 0 0 0 0 0 0 
0 0 0 0 0 0 0 0 0 
0 0 0 0 0 0 0 0 0 
0 0 0 0 0 0 0 0 0 
0 0 0 0 0 0 0 0 0 
0 0 0 0 0 0 0 0 0 
0 0 0 0 0 0 0 0 0 
0 0 0 0 0 0 0 0 0 
0 0 0 0 0 0 0 0 0 
0 0 0 0 0 0 0 0 0 
0 0 0 0 0 0 0 0 0 
0 0 0 0 0 0 0 0 0 
0 0 0 0 0 0 0 0 0 
0 0 0 0 0 0 0 0 0 
0 0 0 0 0 0 0 0 0 
0 0 0 0 0 0 0 0 0 
0 0 0 0 0 0 0 0 0 
0 0 0 0 0 0 0 0 0 
0 0 0 0 0 0 0 0 0 
0 0 0 0 0 0 0 0 0 
0 0 0 0 0 0 0 0 0 
0 0 0 0 0 0 0 0 0 
0 0 0 0 0 0 0 0 0 
0 0 0 0 0 0 0 0 0 
0 0 0 0 0 0 0 0 0 
0 0 0 0 0 0 0 0 0 
0 0 0 0 0 0 0 0 0 
0 0 0 0 0 0 0 0 0 
0 0 0 0 0 0 0 0 0 
0 0 0 0 0 0 0 0 0 
0 0 0 0 0 0 0 0 0 
0 0 0 0 0 0 0 0 0 
0 0 0 0 0 0 0 0 0 
0 0 0 0 0 0 0 0 0 
0 0 0 0 0 0 0 0 0 
0 0 0 0 0 0 0 0 0 
0 0 0 0 0 0 0 0 0 
0 0 0 0 0 0 0 0 0 
0 0 0 0 0 0 0 0 0 
0 0 0 0 0 0 0 0 0 
0 0 0 0 0 0 0 0 0 
0 0 0 0 0 0 0 0 0 
0 0 0 0 0 0 0 0 0 
0 0 0 0 0 0 0 0 0 
0 0 0 0 0 0 0 0 0 
0 0 0 0 0 0 0 0 0 
0 0 0 0 0 0 0 0 0 
0 0 0 0 0 0 0 0 0 
0 0 0 0 0 0 0 0 0 
0 0 0 0 0 0 0 0 0 
0 0 0 0 0 0 0 0 0 
0 0 0 0 0 0 0 0 0 
0 0 0 0 0 0 0 0 0 
0 0 0 0 0 0 0 0 0 
0 0 0 0 0 0 0 0 0 
0 0 0 0 0 0 0 0 0 
0 0 0 0 0 0 0 0 0 
0 0 0 0 0 0 0 0 0 
0 0 0 0 0 0 0 0 0 
0 0 0 0 0 0 0 0 0 
0 0 0 0 0 0 0 0 0 
0 0 0 0 0 0 0 0 0 
0 0 0 0 0 0 0 0 0 
0 0 0 0 0 0 0 0 0 
0 0 0 0 0 0 0 0 0 
0 0 0 0 0 0 0 0 0 
0 0 0 0 0 0 0 0 0 
0 0 0 0 0 0 0 0 0 
0 0 0 0 0 0 0 0 0 
0 0 0 0 0 0 0 0 0 
0 0 0 0 0 0 0 0 0 
0 0 0 0 0 0 0 0 0 
0 0 0 0 0 0 0 0 0 
0 0 0 0 0 0 0 0 0 
0 0 0 0 0 0 0 0 0 
0 0 0 0 0 0 0 0 0 
0 0 0 0 0 0 0 0 0 
0 0 0 0 0 0 0 0 0 
0 0 0 0 0 0 0 0 0 
0 0 0 0 0 0 0 0 0 
0 0 0 0 0 0 0 0 0 
0 0 0 0 0 0 0 0 0 
0 0 0 0 0 0 0 0 0 
0 0 0 0 0 0 0 0 0 
0 0 0 0 0 0 0 0 0 
0 0 0 0 0 0 0 0 0 
0 0 0 0 0 0 0 0 0 
0 0 0 0 0 0 0 0 0 
0 0 0 0 0 0 0 0 0 
0 0 0 0 0 0 0 0 0 
0 0 0 0 0 0 0 0 0 
0 0 0 0 0 0 0 0 0 
0 0 0 0 0 0 0 0 0 
0 0 0 0 0 0 0 0 0 
0 0 0 0 0 0 0 0 0 
0 0 0 0 0 0 0 0 0 
0 0 0 0 0 0 0 0 0 
0 0 0 0 0 0 0 0 0 
0 0 0 0 0 0 0 0 0 
0 0 0 0 0 0 0 0 0 
0 0 0 0 0 0 0 0 0 
0 0 0 0 0 0 0 0 0 
0 0 0 0 0 0 0 0 0 
0 0 0 0 0 0 0 0 0 
0 0 0 0 0 0 0 0 0 
0 0 0 0 0 0 0 0 0 
0 0 0 0 0 0 0 0 0 
0 0 0 0 0 0 0 0 0 
0 0 0 0 0 0 0 0 0 
0 0 0 0 0 0 0 0 0 
0 0 0 0 0 0 0 0 0 
0 0 0 0 0 0 0 0 0 
0 0 0 0 0 0 0 0 0 
0 0 0 0 0 0 0 0 0 
0 0 0 0 0 0 0 0 0 
0 0 0 0 0 0 0 0 0 
0 0 0 0 0 0 0 0 0 
0 0 0 0 0 0 0 0 0 
0 0 0 0 0 0 0 0 0 
0 0 0 0 0 0 0 0 0 
0 0 0 0 0 0 0 0 0 
0 0 0 0 0 0 0 0 0 
0 0 0 0 0 0 0 0 0 
0 0 0 0 0 0 0 0 0 
0 0 0 0 0 0 0 0 0 
0 0 0 0 0 0 0 0 0 
0 0 0 0 0 0 0 0 0 
0 0 0 0 0 0 0 0 0 
0 0 0 0 0 0 0 0 0 
0 0 0 0 0 0 0 0 0 
0 0 0 0 0 0 0 0 0 
0 0 0 0 0 0 0 0 0 
0 0 0 0 0 0 0 0 0 
0 0 0 0 0 0 0 0 0 
0 0 0 0 0 0 0 0 0 
0 0 0 0 0 0 0 0 0 
0 0 0 0 0 0 0 0 0 
0 0 0 0 0 0 0 0 0 
0 0 0 0 0 0 0 0 0 
0 0 0 0 0 0 0 0 0 
0 0 0 0 0 0 0 0 0 
0 0 0 0 0 0 0 0 0 
0 0 0 0 0 0 0 0 0 
0 0 0 0 0 0 0 0 0 
0 0 0 0 0 0 0 0 0 
0 0 0 0 0 0 0 0 0 
0 0 0 0 0 0 0 0 0 
0 0 0 0 0 0 0 0 0 
0 0 0 0 0 0 0 0 0 
0 0 0 0 0 0 0 0 0 
0 0 0 0 0 0 0 0 0 
0 0 0 0 0 0 0 0 0 
0 0 0 0 0 0 0 0 0 
0 0 0 0 0 0 0 0 0 
0 0 0 0 0 0 0 0 0 
0 0 0 0 0 0 0 0 0 
0 0 0 0 0 0 0 0 0 
0 0 0 0 0 0 0 0 0 
0 0 0 0 0 0 0 0 0 
0 0 0 0 0 0 0 0 0 
0 0 0 0 0 0 0 0 0 
0 0 0 0 0 0 0 0 0 
0 0 0 0 0 0 0 0 0 
0 0 0 0 0 0 0 0 0 
0 0 0 0 0 0 0 0 0 
0 0 0 0 0 0 0 0 0 
0 0 0 0 0 0 0 0 0 
0 0 0 0 0 0 0 0 0 
0 0 0 0 0 0 0 0 0 
0 0 0 0 0 0 0 0 0 
0 0 0 0 0 0 0 0 0 
0 0 0 0 0 0 0 0 0 
0 0 0 0 0 0 0 0 0 
0 0 0 0 0 0 0 0 0 
0 0 0 0 0 0 0 0 0 
0 0 0 0 0 0 0 0 0 
0 0 0 0 0 0 0 0 0 
0 0 0 0 0 0 0 0 0 
0 0 0 0 0 0 0 0 0 
0 0 0 0 0 0 0 0 0 
0 0 0 0 0 0 0 0 0 
0 0 0 0 0 0 0 0 0 
0 0 0 0 0 0 0 0 0 
0 0 0 0 0 0 0 0 0 
0 0 0 0 0 0 0 0 0 
0 0 0 0 0 0 0 0 0 
0 0 0 0 0 0 0 0 0 
0 0 0 0 0 0 0 0 0 
0 0 0 0 0 0 0 0 0 
0 0 0 0 0 0 0 0 0 
0 0 0 0 0 0 0 0 0 
0 0 0 0 0 0 0 0 0 
0 0 0 0 0 0 0 0 0 
0 0 0 0 0 0 0 0 0 
0 0 0 0 0 0 0 0 0 
0 0 0 0 0 0 0 0 0 
0 0 0 0 0 0 0 0 0 
0 0 0 0 0 0 0 0 0 
0 0 0 0 0 0 0 0 0 
0 0 0 0 0 0 0 0 0 
0 0 0 0 0 0 0 0 0 
0 0 0 0 0 0 0 0 0 
0 0 0 0 0 0 0 0 0 
0 0 0 0 0 0 0 0 0 
0 0 0 0 0 0 0 0 0 
0 0 0 0 0 0 0 0 0 
0 0 0 0 0 0 0 0 0 
0 0 0 0 0 0 0 0 0 
0 0 0 0 0 0 0 0 0 
0 0 0 0 0 0 0 0 0 
0 0 0 0 0 0 0 0 0 
0 0 0 0 0 0 0 0 0 
0 0 0 0 0 0 0 0 0 
0 0 0 0 0 0 0 0 0 
0 0 0 0 0 0 0 0 0 
0 0 0 0 0 0 0 0 0 
0 0 0 0 0 0 0 0 0 
0 0 0 0 0 0 0 0 0 
0 0 0 0 0 0 0 0 0 
0 0 0 0 0 0 0 0 0 
0 0 0 0 0 0 0 0 0 
0 0 0 0 0 0 0 0 0 
0 0 0 0 0 0 0 0 0 
0 0 0 0 0 0 0 0 0 
0 0 0 0 0 0 0 0 0 
0 0 0 0 0 0 0 0 0 
0 0 0 0 0 0 0 0 0 
0 0 0 0 0 0 0 0 0 
0 0 0 0 0 0 0 0 0 
0 0 0 0 0 0 0 0 0 
0 0 0 0 0 0 0 0 0 
0 0 0 0 0 0 0 0 0 
0 0 0 0 0 0 0 0 0 
0 0 0 0 0 0 0 0 0 
0 0 0 0 0 0 0 0 0 
0 0 0 0 0 0 0 0 0 
0 0 0 0 0 0 0 0 0 
0 0 0 0 0 0 0 0 0 
0 0 0 0 0 0 0 0 0 
0 0 0 0 0 0 0 0 0 
0 0 0 0 0 0 0 0 0 
0 0 0 0 0 0 0 0 0 
0 0 0 0 0 0 0 0 0 
0 0 0 0 0 0 0 0 0 
0 0 0 0 0 0 0 0 0 
0 0 0 0 0 0 0 0 0 
0 0 0 0 0 0 0 0 0 
0 0 0 0 0 0 0 0 0 
0 0 0 0 0 0 0 0 0 
0 0 0 0 0 0 0 0 0 
0 0 0 0 0 0 0 0 0 
0 0 0 0 0 0 0 0 0 
0 0 0 0 0 0 0 0 0 
0 0 0 0 0 0 0 0 0 
0 0 0 0 0 0 0 0 0 
0 0 0 0 0 0 0 0 0 
0 0 0 0 0 0 0 0 0 
0 0 0 0 0 0 0 0 0 
0 0 0 0 0 0 0 0 0 
0 0 0 0 0 0 0 0 0 
0 0 0 0 0 0 0 0 0 
0 0 0 0 0 0 0 0 0 
0 0 0 0 0 0 0 0 0 
0 0 0 0 0 0 0 0 0 
0 0 0 0 0 0 0 0 0 
0 0 0 0 0 0 0 0 0 
0 0 0 0 0 0 0 0 0 
0 0 0 0 0 0 0 0 0 
0 0 0 0 0 0 0 0 0 
0 0 0 0 0 0 0 0 0 
0 0 0 0 0 0 0 0 0 
0 0 0 0 0 0 0 0 0 
0 0 0 0 0 0 0 0 0 
0 0 0 0 0 0 0 0 0 
0 0 0 0 0 0 0 0 0 
0 0 0 0 0 0 0 0 0 
0 0 0 0 0 0 0 0 0 
0 0 0 0 0 0 0 0 0 
0 0 0 0 0 0 0 0 0 
0 0 0 0 0 0 0 0 0 
0 0 0 0 0 0 0 0 0 
0 0 0 0 0 0 0 0 0 
0 0 0 0 0 0 0 0 0 
0 0 0 0 0 0 0 0 0 
0 0 0 0 0 0 0 0 0 
0 0 0 0 0 0 0 0 0 
0 0 0 0 0 0 0 0 0 
0 0 0 0 0 0 0 0 0 
0 0 0 0 0 0 0 0 0 
0 0 0 0 0 0 0 0 0 
0 0 0 0 0 0 0 0 0 
0 0 0 0 0 0 0 0 0 
0 0 0 
v 3 1111 double
0.00189362 -0.00136277 -0.00206235 -0.00224509 -0.00279976 -0.000136071 -0.00350953 0.00147735 0.000239391 
-0.0503728 0.00882352 -0.000340224 0.0207027 0.0182477 0.0114948 0.0439412 0.0164729 -0.0022657 
-0.00405298 0.00483075 1.60711e-05 -0.0344562 0.0328763 0.0019375 -0.0157896 -0.0101732 -0.0156439 
-0.0210573 0.00888773 -0.0761462 0.00214229 -0.000348661 0.000336707 0.00668161 0.0112703 -0.00032782 
0.00591925 -0.0063372 0.0017495 -0.00195215 0.00562774 7.81202e-05 -0.0101416 0.0117284 -1.87236e-05 
0.00341009 -0.00110133 -0.0024149 -0.00987939 -0.00335692 -0.000150197 -0.00353512 0.0052022 -0.00132077 
-0.0309963 0.00799433 0.150087 0.00841235 -0.0172483 0.00225474 -0.00221425 -0.00205887 -0.00251878 
-0.00227992 -0.00497779 -0.00117442 -0.00343002 -0.00266543 1.4832e-05 0.000266226 0.000148783 0.000219914 
-0.0174947 0.0154766 3.4079e-05 -0.0237222 0.0164739 0.000243559 -0.00619944 0.000391238 -0.00142657 
-0.000173075 -0.00143762 -0.00145048 0.00335147 -0.00731082 -0.00639056 0.00390935 0.0212745 0.000597373 
0.00998725 -0.0082555 0.000707147 -0.010291 0.0117644 0.000157751 -0.0494719 -0.0331443 0.00748147 
-0.00611957 0.0102456 -4.61789e-08 -0.0489492 0.0186581 -0.00318707 -0.00192564 0.00582456 1.53509e-07 
-0.00462811 0.000938019 0.00159493 -0.0249607 -0.0245609 -0.00440123 0.000668623 0.00201989 -0.000195567 
-0.000939584 0.00130121 9.28497e-05 0.000335403 0.00222208 -7.41605e-06 -0.00183444 0.0107706 -0.000283153 
0.00257283 0.000267642 0.0010402 0.0055539 -0.00100168 -0.00561475 -0.0262724 -0.00495169 8.98903e-05 
0.0126414 -0.0298536 0.00158437 -0.00213359 -0.0024342 0.000184209 -0.00106842 -0.00071499 -0.000656302 
0.00913717 -0.00914105 0.000165846 -0.00198682 0.00410535 -0.00113761 -0.0058291 -0.00476436 -0.00320697 
0.000254694 -0.00220743 0.000902138 -0.0139267 -0.0235053 0.000317715 0.00311511 0.00254803 1.14142e-05 
-0.0105894 0.0206438 -0.00622864 -0.0210021 0.0169111 0.00148975 0.00142997 0.00285347 8.67121e-05 
-0.00223607 0.00106099 -0.000578889 -0.00545309 -0.00892616 9.04184e-05 -0.00572199 0.00624102 -0.00155047 
-0.000320199 0.00255029 0.010623 0.00843769 0.00573235 -0.00184421 0.0205773 -0.00339591 0.000273369 
0.0118781 -0.00983528 -0.00076143 0.00545863 0.000495653 6.41497e-05 0.0141648 -0.00489786 4.86423e-05 
0.0216485 -0.0161795 1.44994e-06 -0.00201881 0.000741526 -0.000540374 -0.00343081 0.00148161 -0.00296534 
-0.00772717 0.000120603 0.0010399 0.0100807 0.00769165 -0.017003 0.00452494 0.000918869 0.00448536 
-0.028095 -0.00396562 0.00422103 -0.020617 0.0293512 -4.38191e-05 -0.00198072 0.0447021 0.0153071 
0.00158265 0.00973414 0.0108749 0.00340629 -0.00251122 -9.8077e-05 0.0107136 -0.00160255 -0.000950646 
0.00942386 0.00716621 -0.0028871 0.00937104 0.00795589 4.88826e-05 0.0140774 -0.00232613 0.000528344 
0.00793931 -0.0165411 9.85225e-05 0.0193793 -0.00428858 3.08566e-05 -0.00559273 0.0450835 0.00825829 
0.0144516 -0.0348559 0.000119487 -0.0156529 -0.0239921 -0.000648344 -0.00717503 -0.0102752 0.00904558 
-0.0343566 -0.00891555 0.00374973 -0.0101163 -0.0201205 -0.000343688 -0.0092746 0.048165 0.00135375 
0.0166082 0.0123517 0.0033029 -0.000498026 -0.00062792 4.83618e-12 0.00392431 -0.000762561 8.51321e-05 
0.014002 -0.00798763 -3.50121e-06 0.0104867 -0.00245386 0.000981875 -0.00963645 -0.0116341 2.04506e-05 
0.00786691 0.0108199 2.82854e-08 0.0029971 0.0283375 8.88813e-11 0.0298798 -0.000609946 -0.000215157 
0.0126632 -0.0245882 -0.000141979 0.0313409 0.0148067 -0.0379695 -0.00519219 0.0424749 -0.00381227 
0.0181428 -0.0324552 -0.000149372 -0.0143956 -0.0240325 -0.0156929 -0.0574819 0.00176525 0.000911224 
-0.0296525 -0.0936404 6.30711e-07 -0.0247202 0.00815669 -0.000579833 -0.0297279 -0.00597884 3.28984e-06 
0.0346611 -0.101088 -0.00770976 0.00580038 0.00909037 0.000370421 0.00494771 0.0113819 -3.26617e-08 
0.00104825 -0.00149155 0.000465608 0.00823011 -0.000983109 0.00113112 -0.00488614 0.0101584 5.43612e-05 
0.0105999 -0.00564396 4.57625e-08 -0.00248366 0.00856736 0.00124734 -0.00508386 3.92036e-05 -0.000122973 
-0.0099853 -0.00864566 -0.000601755 -0.00652438 0.00365046 -0.000386672 0.0306414 -0.0612653 4.04847e-14 
0.0530795 0.0236883 -0.0104713 0.00604185 -0.0536424 -2.83966e-05 -0.0185335 -0.0422871 -0.00553023 
-0.0364883 -0.0364841 0.00436228 -0.0381271 -0.013442 7.21301e-05 0.018392 -0.0339778 -5.65624e-05 
-0.0760213 0.0163448 0.00159476 -0.00771342 -0.0413425 -0.0787228 -0.0163226 0.0153836 -0.000489126 
-0.0145888 -0.00643754 2.33113e-05 -0.00574012 -0.0101626 0.00207061 0.0271889 0.00423979 -0.00623895 
-0.0201444 -0.0103601 -0.000203444 -0.00211084 -0.00222215 -0.00176573 0.00274199 0.000625365 -0.000128707 
0.00527412 0.00167724 -0.000128577 -0.0123134 0.00400288 -0.000160785 -0.02251 0.00968517 -0.000193294 
0.000253149 0.000498574 0.000297407 0.0111037 -0.0167746 -0.000599268 0.0424714 -0.0513852 -0.0210711 
0.0323005 -0.00224896 -0.00153989 -0.0456482 0.0310546 -0.00118532 -0.0281648 -0.0244255 -0.077408 
0.00858236 0.0155888 4.04854e-14 0.0122465 0.014148 1.57838e-06 0.0196561 -0.0129781 -0.000316897 
0.00718364 -0.0224243 0.000252735 -0.0294869 -0.00361303 0.00150101 -0.0100973 0.0147019 -1.82476e-11 
-0.0273161 0.0407722 -0.00598078 0.0013925 -0.000496871 6.99195e-06 0.00326747 -0.00802457 1.97077e-06 
0.00274927 0.0106547 6.04507e-08 0.0173793 -0.00235373 0.00106964 -0.016576 -0.00435549 -0.000696385 
0.0169466 0.0167364 0.00388898 -0.0074607 -0.01507 0.000307959 0.0146083 0.0038292 -0.000291876 
0.0022959 -0.00335463 0.000486448 -0.0134231 0.0114281 0.00928429 -0.0139163 0.0218365 -0.00266153 
0.00373162 -0.00123926 0.00229281 0.0270666 -0.00325566 0.000139287 0.00270475 -0.0289 0.00463175 
0.0159155 -0.0011779 -0.000620137 0.0127558 0.00125626 -0.00765495 0.038076 -0.0279361 -2.90002e-08 
0.0155409 -0.00451524 0.00104784 0.00582627 -0.0114378 0.0208727 0.0265647 -0.0300226 0.00126708 