# vtk DataFile Version 4.0
Generated by LIGGGHTS
ASCII
DATASET POLYDATA
POINTS 458 float
0.00185269 -0.0496224 0.0811369 0.00417208 -0.0477589 0.081117 0.0134553 -0.0476944 0.0811205 
-0.0148736 -0.047105 0.0813494 -0.0107765 -0.0462312 0.0811202 0.000435553 -0.0465627 0.0811205 
-0.0239108 -0.0430741 0.0811205 -0.00962812 -0.0424365 0.0811205 -0.0047163 -0.0424336 0.0811205 
0.00271078 -0.0420185 0.0821216 0.00609215 -0.0454705 0.0811388 0.0119983 -0.0448482 0.0811205 
0.0174771 -0.0412801 0.0811205 -0.0266233 -0.0397909 0.0821184 -0.0161852 -0.0404933 0.0811205 
0.00500305 -0.0384742 0.0811205 0.0307419 -0.0376457 0.0821239 -0.0273714 -0.0350346 0.0811205 
-0.0244852 -0.0336929 0.0811205 0.0104191 -0.0367221 0.0811205 0.0131945 -0.0361238 0.0831668 
0.0153081 -0.0377278 0.0811205 0.0280619 -0.0343784 0.0811205 0.0329094 -0.0344578 0.0811096 
-0.0357069 -0.031316 0.0814698 -0.00156396 -0.031092 0.0811205 0.0174062 -0.0336984 0.0811203 
0.0276837 -0.0314009 0.0811296 0.0328079 -0.0310916 0.0811162 0.0367624 -0.029762 0.0811329 
-0.0400375 -0.0272301 0.0813396 -0.0182213 -0.0289441 0.0821183 0.00281623 -0.0263103 0.0860747 
0.040509 -0.0286898 0.0812783 -0.030673 -0.0225116 0.0846592 0.0161491 -0.0241095 0.0811205 
0.0377999 -0.0258659 0.0821174 -0.0454934 -0.0196369 0.0811216 -0.0435479 -0.0217812 0.0826745 
-0.0334525 -0.0187724 0.0865944 -0.0278153 -0.0200189 0.0829613 0.0335329 -0.0232478 0.0821207 
0.0420417 -0.0196371 0.0811205 -0.0429933 -0.0162268 0.0821142 -0.0111704 -0.0162586 0.0821185 
-0.00729523 -0.0161214 0.0811205 -0.00245281 -0.0175301 0.0826127 0.0176646 -0.0184525 0.0821183 
0.033476 -0.0188749 0.0811205 -0.0468904 -0.0127751 0.0821182 -0.026316 -0.0137337 0.0813737 
-0.0157712 -0.0142118 0.0811205 -0.00363729 -0.0124365 0.0821183 0.0170443 -0.0142013 0.0811205 
0.0352275 -0.0163218 0.0811204 0.0376232 -0.0141822 0.0811205 0.0454084 -0.0128007 0.0811205 
-0.0286847 -0.00803891 0.0811186 0.00495532 -0.0138624 0.0821522 0.0352509 -0.0113331 0.0811747 
0.0384645 -0.0100404 0.0811323 0.0415476 -0.0110856 0.0811204 -0.047713 -0.007499 0.0821182 
-0.0253629 -0.00982097 0.0826636 -0.019298 -0.0094752 0.0811205 -0.000730862 -0.00767711 0.0811198 
0.00695987 -0.00682449 0.0821585 0.0299545 -0.00746094 0.0811299 0.0465328 -0.0120482 0.0857432 
0.0486991 -0.00913995 0.0812007 0.00341747 -0.00313692 0.0821175 0.0239729 -0.00501407 0.0821183 
-0.0495264 0.00051448 0.081278 -0.0424607 -0.00248076 0.0811205 -0.0387468 0.000623084 0.0811999 
-0.0315942 -0.000637937 0.0811205 -0.0141343 0.000709766 0.0811323 -0.00830728 0.000693006 0.0811252 
-0.00477977 0.001778 0.0811282 0.00811965 -0.00112164 0.082117 -0.0430369 0.0015611 0.081492 
-0.0307612 0.00536091 0.0811205 -0.0102455 0.00314906 0.0812312 -0.00690252 0.00542261 0.0821183 
0.00407889 0.00378484 0.0821169 0.00801001 0.00373195 0.0811519 0.010632 0.00202312 0.0815989 
0.0273928 0.00412444 0.0823067 0.035982 0.00225616 0.0820831 0.0448901 0.00324217 0.0824146 
-0.0396021 0.00661385 0.0811205 -0.0258965 0.00636811 0.0811205 -0.0175215 0.00751974 0.0811205 
-0.000794797 0.00845056 0.0811205 0.0151933 0.00522958 0.0823071 0.0199237 0.00413037 0.0816637 
-0.023314 0.0092554 0.083156 -0.0121321 0.0100041 0.0821183 0.0181428 0.00941086 0.0821176 
0.0212318 0.0119744 0.0811204 0.0306143 0.00839755 0.0811205 0.0459029 0.0109591 0.0821509 
-0.0422019 0.0151773 0.0811616 -0.0160229 0.0127301 0.081164 -0.0131502 0.0141824 0.0811205 
-0.00267625 0.0140092 0.0821183 0.0112154 0.0115787 0.0826637 -0.0457136 0.0167452 0.0821608 
-0.0386064 0.0165727 0.0821386 -0.0175593 0.0164786 0.0821183 0.0131295 0.0163998 0.0829045 
0.0325973 0.0185029 0.0811205 -0.0426383 0.0209273 0.0821183 -0.0372549 0.0208515 0.0811205 
-0.0339221 0.0182168 0.0821154 -0.0162073 0.0204506 0.0818062 0.00688963 0.0196542 0.0821183 
0.0168798 0.0176909 0.0829938 0.0280434 0.0218811 0.0811205 -0.0390033 0.024474 0.0821237 
-0.0343883 0.0264087 0.0821177 -0.0227971 0.0257351 0.0826946 -0.00688388 0.0246145 0.0820706 
0.00999439 0.0237485 0.0821183 0.0144367 0.026396 0.0823874 0.0271449 0.0247724 0.0811205 
0.0371898 0.0226911 0.0821183 0.0413092 0.0275562 0.0811248 -0.038608 0.0294517 0.0821201 
-0.0266753 0.0273017 0.0811205 0.00485105 0.0283685 0.0811205 0.00926783 0.0324697 0.0812162 
0.0239052 0.0288965 0.0819639 0.0266318 0.0279686 0.0811207 0.0321258 0.0291401 0.0811205 
-0.0370737 0.0330038 0.0811202 -0.0347686 0.0302644 0.0811205 -0.0269877 0.0308757 0.0814241 
0.0135983 0.0331239 0.0812158 0.0299735 0.0316944 0.0811203 0.0354302 0.0314297 0.0821183 
0.0391015 0.0300954 0.0811205 -0.0328851 0.0337492 0.0821214 -0.0289946 0.0347131 0.0811205 
-0.0224816 0.035689 0.0823181 0.0105758 0.0352539 0.0811517 0.023898 0.0362568 0.0811205 
0.0287348 0.0359269 0.0811207 0.0318918 0.0342155 0.0811205 0.0330625 0.0370173 0.0811212 
-0.0249842 0.0386816 0.0811417 0.00774815 0.0425304 0.0811201 0.0158621 0.0383019 0.0821279 
0.0209877 0.0397125 0.0821079 -0.0286357 0.0403161 0.0811206 -0.0257993 0.0409764 0.0830181 
-0.0190323 0.0446628 0.0821215 0.0154908 0.0432908 0.082116 0.00549478 0.0466475 0.0821174 
0.0103538 0.0454341 0.0821188 0.0210884 0.0443313 0.0811205 -0.00621805 0.0487038 0.0811205 
0.00292525 0.0495457 0.0811211 -0.0176279 -0.0462991 0.0822075 -0.0129068 -0.0470831 0.0850814 
-0.015706 -0.0439678 0.0828348 0.0126034 -0.0459503 0.0861467 -0.0308748 -0.0385806 0.0839516 
-0.0194943 -0.0454318 0.0885177 0.0022551 -0.0380592 0.0829393 -0.0122589 -0.035434 0.082498 
-0.00914695 -0.0382358 0.0826582 0.0114178 -0.033482 0.0893547 -0.0265702 -0.0355442 0.0874893 
-0.0181225 -0.0324501 0.0865167 -0.0141582 -0.0354901 0.0852358 0.00777721 -0.0385374 0.087647 
0.0340281 -0.0327443 0.0845411 -0.0360967 -0.0256923 0.0821239 -0.0335376 -0.0322862 0.0897134 
-0.0277931 -0.0289162 0.0835908 -0.0119358 -0.0308414 0.0876779 0.00590848 -0.025601 0.0856155 
0.0337715 -0.0273745 0.0828107 0.0366095 -0.0296246 0.0842665 0.0263718 -0.0301638 0.0835384 
-0.0196877 -0.0195805 0.0818332 -0.0103088 -0.0224962 0.0818909 -0.00637221 -0.0223141 0.0817401 
-0.00145563 -0.0218547 0.0864367 0.0282581 -0.0212426 0.0833936 0.0387761 -0.0218245 0.082135 
-0.0286848 -0.0159507 0.0823901 -0.0157791 -0.0186064 0.0827844 0.0267428 -0.0150493 0.0865679 
-0.023375 -0.0130761 0.0858935 0.00809702 -0.0168522 0.0813075 0.0332159 -0.0140893 0.0852452 
0.0420467 -0.0157389 0.0821312 -0.0346818 -0.00967097 0.087143 -0.0285397 -0.0103225 0.0830564 
-0.0411654 -0.0089271 0.0833443 -0.0157835 -0.00670053 0.083623 0.035573 -0.005877 0.0813049 
0.0464218 -0.0010947 0.0846864 -0.0376316 -0.00224368 0.0836853 -0.00259031 0.000952672 0.0830129 
0.0317876 0.000441583 0.0841955 0.0388622 0.000927954 0.0865982 -0.0241917 0.00270039 0.0813007 
-0.000330848 0.00359224 0.0839448 0.00801077 0.00338901 0.0845634 0.0158291 0.00753413 0.0856284 
0.0427234 0.00544514 0.0852336 -0.0472551 0.01135 0.0821085 -0.0428136 0.0122277 0.0813977 
-0.046888 0.0152327 0.0856627 0.0168779 0.0129921 0.0838197 0.0243698 0.0126045 0.0816512 
0.0280275 0.0132184 0.0862821 -0.0421455 0.0170742 0.0838453 -0.0209263 0.0181923 0.085497 
-0.0103639 0.0149656 0.0871825 0.0184099 0.0188781 0.088617 -0.0301625 0.0213842 0.0829131 
-0.00724587 0.0280661 0.0847505 -0.0277721 0.0335275 0.0838317 0.0192772 0.0362144 0.0852295 
0.0300923 0.0355991 0.085264 -0.00424317 0.0434365 0.0844888 -0.00804508 0.0464932 0.0842964 
0.00332656 0.0478911 0.0853351 -0.00914288 -0.0473239 0.0865296 -0.0017889 -0.047425 0.0851138 
0.00615508 -0.0446357 0.085824 -0.00697104 -0.0222436 0.0867933 0.00257481 -0.0178102 0.0842626 
0.0369529 -0.02362 0.0890158 -0.0124259 -0.0196959 0.0852226 0.0234399 -0.0223719 0.0843634 
-0.0476113 -0.01288 0.0893489 -0.0275637 -0.0136262 0.0900642 0.0143124 -0.0130284 0.0927865 
-0.0401056 -0.0104509 0.0900617 0.0286222 -0.0103629 0.0840942 -0.0266377 -0.00756834 0.086155 
-0.0460259 0.000146785 0.0904657 -0.0195943 -0.00139613 0.0883944 -0.0442214 0.0112133 0.0860708 
-0.0110357 0.00996392 0.0873442 0.0116854 0.00902433 0.0880826 0.0335278 0.00851413 0.0869516 
-0.039143 0.00962701 0.0902811 0.0138882 0.0152334 0.087575 -0.0220991 0.0142341 0.0838276 
-0.0121287 0.0168026 0.0905591 -0.0166506 0.0194729 0.0870149 -0.0401266 0.025724 0.0868438 
-0.00962566 0.0305427 0.0930064 0.0222704 0.031504 0.0906186 0.0238885 0.0344102 0.0884202 
-0.0132024 0.0414188 0.0885842 -0.0134331 0.0457486 0.0847475 0.0174632 0.0454494 0.0861678 
-0.000616232 0.0493775 0.0904408 0.00210198 -0.0492296 0.0861584 0.000621806 -0.0387747 0.09279 
-0.00345777 -0.0350811 0.0915006 -0.0239037 -0.0242727 0.0857158 0.0383016 -0.0183781 0.089427 
0.00128486 -0.0126019 0.0934534 -0.0375396 -0.0021391 0.0880207 -0.0140831 -0.00489033 0.0921296 
-0.000308554 0.00726863 0.0900145 0.00803797 0.00725261 0.0824161 -0.0178284 0.0160163 0.0886222 
0.00850274 0.020769 0.086814 0.0460228 0.0160407 0.0909122 -0.0185538 0.0257607 0.0920446 
0.00356942 0.0257925 0.0913126 0.0135071 0.0348211 0.088564 -0.0137451 0.0429954 0.0926536 
-0.0168887 -0.044985 0.0961391 -0.00355011 -0.0386161 0.0933115 0.00145362 -0.0280917 0.0935056 
0.0142384 -0.0255949 0.0945106 0.0106651 -0.00762351 0.08904 0.0310879 -0.00598758 0.0944989 
-0.0271281 0.000814539 0.0824298 0.021446 -6.36583e-05 0.0814259 -0.0127654 0.00485753 0.0929655 
0.0295816 0.00284033 0.0935283 -0.0182445 0.0109494 0.0866552 -0.00425745 0.017778 0.0913531 
0.0126577 0.0260006 0.092287 -0.00662758 0.0431883 0.0933629 0.00648854 0.0400908 0.0939149 
0.0124759 -0.0306595 0.0970545 -0.00621226 -0.0262392 0.0950138 -0.0036853 -0.0168807 0.0935657 
0.0232679 -0.00383425 0.0954036 0.0383794 0.00255695 0.0940409 0.0393073 0.0032585 0.0841276 
-0.0184277 0.0295787 0.0813807 0.0089093 0.0330096 0.0972209 -0.0266033 -0.00628325 0.102162 
0.0318606 -0.00588886 0.100145 -0.00389534 0.0123193 0.100127 0.018346 0.0122867 0.0991565 
-0.00493503 0.0232645 0.0851705 -0.0110234 0.0403974 0.102019 0.00761906 -0.0184204 0.0848072 
0.0274742 -0.00162992 0.086091 -0.0141508 0.0269967 0.0871387 -0.0369778 -0.0121126 0.111805 
-0.0325037 0.01638 0.108454 0.00842062 0.0166875 0.0920624 0.0170816 0.0409748 0.0905742 
-0.0365539 -0.00567484 0.0908964 0.00251449 -0.00813565 0.0941812 -0.0341341 0.0119744 0.0926529 
0.0247417 0.0153298 0.0937069 0.012584 0.0290903 0.094768 -0.0298843 0.0368237 0.111312 
0.0121474 -0.0217972 0.0990415 -0.0182303 -0.0172101 0.0946734 -0.0294025 0.00625808 0.112303 
0.0362853 -0.000801686 0.101662 -0.0239118 0.0115143 0.101181 -0.0289214 -0.0224315 0.103893 
0.0164489 -0.00414888 0.106607 0.0320668 0.018251 0.108349 -0.0366668 -0.00275727 0.110082 
-0.0125232 -0.00201753 0.111747 -0.0266225 0.012602 0.112524 -0.0228705 -0.0279163 0.113171 
0.000876286 -0.00502923 0.114001 -0.0181314 -0.0365099 0.118609 0.0372241 -0.00496006 0.118705 
0.00410244 0.0371437 0.120068 0.0419989 -0.00433891 0.123602 0.0112996 0.0341587 0.121195 
-0.00309695 -0.00137909 0.124132 0.00692388 0.00214792 0.125065 -0.0176921 0.0284611 0.142958 
-0.037247 -0.0235961 0.129568 0.0307308 -0.0139734 0.128662 -0.0348257 -0.00483668 0.128344 
-0.0124228 0.0359989 0.128865 -0.0228464 -0.00559641 0.133592 0.0391874 0.00736359 0.132988 
0.0074274 0.0100411 0.1333 0.0133705 -0.0223305 0.135732 0.00764154 0.00455319 0.138074 
0.00330523 -0.0250089 0.139504 0.00296838 0.00822408 0.142142 0.030464 0.0068227 0.141699 
0.00227137 -0.0336236 0.148411 -0.015378 0.00127119 0.148865 0.00611988 -0.0222591 0.152 
0.00783772 -0.0166741 0.151302 -0.0235745 -0.00730154 0.150263 0.00281098 -0.0339228 0.155558 
0.0203442 -0.0285468 0.15715 0.0399978 -0.00278466 0.154691 -0.0263638 0.011884 0.157217 
-0.0218177 0.0172583 0.154688 -0.0220288 -0.0361214 0.157968 -0.0444439 -0.00601372 0.161039 
0.0123094 0.0175963 0.158111 -0.00399598 0.0224229 0.158292 -0.00621866 0.0299949 0.160902 
0.0121843 -0.019531 0.166948 -0.0283224 -0.000512593 0.165529 0.0373051 0.00420623 0.165609 
0.0213853 0.0055008 0.167421 -0.00499611 0.0158862 0.166363 -0.00228932 0.0314684 0.16752 
0.0248347 -0.0165705 0.17053 0.0319623 -0.0126898 0.170685 -0.0420496 -0.00748094 0.174215 
0.0378325 -0.00278681 0.174536 -0.0192166 0.0328101 0.173857 0.0101063 -0.0287233 0.17698 
-0.0186207 0.015316 0.179238 -0.0297208 0.0321235 0.179656 0.0026896 -0.0431779 0.181054 
0.0324133 -0.0218036 0.183282 0.00244787 -0.0184176 0.181188 0.0301274 0.0119527 0.18003 
0.0151321 -0.0388474 0.184101 -0.0239733 0.00659914 0.183526 -0.0192635 0.00970267 0.186616 
-0.0207231 0.0361573 0.186457 0.00446813 0.0346603 0.185608 0.0120071 -0.0184136 0.187404 
-0.0188877 0.0132342 0.194179 0.0187888 -0.036103 0.19628 0.00910245 -0.0264534 0.1982 
0.00509804 -0.0122439 0.198198 -0.0346659 0.0259845 0.197511 0.0226004 0.0296669 0.198678 
-0.0306557 0.0307859 0.198943 -0.00675232 -0.0341908 0.202471 0.0397906 -0.00569887 0.202606 
-0.0131665 -0.00041517 0.20349 0.0263239 0.0114826 0.204149 -0.010093 0.0189857 0.204139 
-0.00986964 0.0234333 0.203326 0.00514247 -0.00729011 0.206343 0.0339171 0.00678579 0.206633 
0.0383596 0.0195173 0.207242 -0.0159786 0.0418657 0.209593 -0.0098011 -0.0234588 0.210271 
0.0115072 0.0275582 0.212304 0.0124456 0.0361137 0.21131 0.0106157 -0.0110129 0.216541 
-0.0307885 -0.0246845 0.219901 -0.00686511 -0.0244712 0.219543 0.00181328 0.0012361 0.220111 
1.88277e-05 0.0106236 0.218211 -0.0220649 0.0240844 0.21754 -0.0226352 0.037476 0.217833 
-0.0164499 -0.0316348 0.221609 0.00346831 0.0047695 0.222269 -0.0100523 0.0290413 0.224648 
0.00910765 -0.0437569 0.228679 0.0154945 -0.0382361 0.226984 -0.0392343 -0.0206563 0.226547 
0.00328139 -0.00288698 0.225076 0.0212559 0.0219542 0.226625 0.0201954 -0.0338501 0.229503 
0.011803 0.00373837 0.232487 -0.0161912 0.0404917 0.229457 0.0235324 -0.0374549 0.23392 
0.00518514 0.0301068 0.233691 0.00240024 0.0412985 0.234784 0.00708918 -0.0103582 0.237296 
0.00126463 0.00207793 0.237367 -0.000263412 0.0194023 0.237804 0.030057 0.0264087 0.236522 
0.00775486 0.0350729 0.238553 -0.0130512 -0.0152917 0.242337 0.015905 0.00472444 0.242653 
-0.0230534 0.0139998 0.240489 -0.00725241 0.0350264 0.24068 -0.00663488 0.042427 0.244089 
-0.023737 -0.0372682 0.244734 0.0325846 -0.00718816 0.244856 -0.00296953 0.00249339 0.246575 
-0.0154989 0.0113036 0.247127 -0.0260806 0.0140553 0.246622 0.0323414 -0.025442 0.248658 
-0.0230999 -0.0159577 0.249625 0.0322522 0.0228406 0.250526 -0.0113132 0.0360437 0.247972 
0.012147 0.0366448 0.250864 -0.0158361 0.0319721 0.251557 
VERTICES 458 916
1 0 
1 1 
1 2 
1 3 
1 4 
1 5 
1 6 
1 7 
1 8 
1 9 
1 10 
1 11 
1 12 
1 13 
1 14 
1 15 
1 16 
1 17 
1 18 
1 19 
1 20 
1 21 
1 22 
1 23 
1 24 
1 25 
1 26 
1 27 
1 28 
1 29 
1 30 
1 31 
1 32 
1 33 
1 34 
1 35 
1 36 
1 37 
1 38 
1 39 
1 40 
1 41 
1 42 
1 43 
1 44 
1 45 
1 46 
1 47 
1 48 
1 49 
1 50 
1 51 
1 52 
1 53 
1 54 
1 55 
1 56 
1 57 
1 58 
1 59 
1 60 
1 61 
1 62 
1 63 
1 64 
1 65 
1 66 
1 67 
1 68 
1 69 
1 70 
1 71 
1 72 
1 73 
1 74 
1 75 
1 76 
1 77 
1 78 
1 79 
1 80 
1 81 
1 82 
1 83 
1 84 
1 85 
1 86 
1 87 
1 88 
1 89 
1 90 
1 91 
1 92 
1 93 
1 94 
1 95 
1 96 
1 97 
1 98 
1 99 
1 100 
1 101 
1 102 
1 103 
1 104 
1 105 
1 106 
1 107 
1 108 
1 109 
1 110 
1 111 
1 112 
1 113 
1 114 
1 115 
1 116 
1 117 
1 118 
1 119 
1 120 
1 121 
1 122 
1 123 
1 124 
1 125 
1 126 
1 127 
1 128 
1 129 
1 130 
1 131 
1 132 
1 133 
1 134 
1 135 
1 136 
1 137 
1 138 
1 139 
1 140 
1 141 
1 142 
1 143 
1 144 
1 145 
1 146 
1 147 
1 148 
1 149 
1 150 
1 151 
1 152 
1 153 
1 154 
1 155 
1 156 
1 157 
1 158 
1 159 
1 160 
1 161 
1 162 
1 163 
1 164 
1 165 
1 166 
1 167 
1 168 
1 169 
1 170 
1 171 
1 172 
1 173 
1 174 
1 175 
1 176 
1 177 
1 178 
1 179 
1 180 
1 181 
1 182 
1 183 
1 184 
1 185 
1 186 
1 187 
1 188 
1 189 
1 190 
1 191 
1 192 
1 193 
1 194 
1 195 
1 196 
1 197 
1 198 
1 199 
1 200 
1 201 
1 202 
1 203 
1 204 
1 205 
1 206 
1 207 
1 208 
1 209 
1 210 
1 211 
1 212 
1 213 
1 214 
1 215 
1 216 
1 217 
1 218 
1 219 
1 220 
1 221 
1 222 
1 223 
1 224 
1 225 
1 226 
1 227 
1 228 
1 229 
1 230 
1 231 
1 232 
1 233 
1 234 
1 235 
1 236 
1 237 
1 238 
1 239 
1 240 
1 241 
1 242 
1 243 
1 244 
1 245 
1 246 
1 247 
1 248 
1 249 
1 250 
1 251 
1 252 
1 253 
1 254 
1 255 
1 256 
1 257 
1 258 
1 259 
1 260 
1 261 
1 262 
1 263 
1 264 
1 265 
1 266 
1 267 
1 268 
1 269 
1 270 
1 271 
1 272 
1 273 
1 274 
1 275 
1 276 
1 277 
1 278 
1 279 
1 280 
1 281 
1 282 
1 283 
1 284 
1 285 
1 286 
1 287 
1 288 
1 289 
1 290 
1 291 
1 292 
1 293 
1 294 
1 295 
1 296 
1 297 
1 298 
1 299 
1 300 
1 301 
1 302 
1 303 
1 304 
1 305 
1 306 
1 307 
1 308 
1 309 
1 310 
1 311 
1 312 
1 313 
1 314 
1 315 
1 316 
1 317 
1 318 
1 319 
1 320 
1 321 
1 322 
1 323 
1 324 
1 325 
1 326 
1 327 
1 328 
1 329 
1 330 
1 331 
1 332 
1 333 
1 334 
1 335 
1 336 
1 337 
1 338 
1 339 
1 340 
1 341 
1 342 
1 343 
1 344 
1 345 
1 346 
1 347 
1 348 
1 349 
1 350 
1 351 
1 352 
1 353 
1 354 
1 355 
1 356 
1 357 
1 358 
1 359 
1 360 
1 361 
1 362 
1 363 
1 364 
1 365 
1 366 
1 367 
1 368 
1 369 
1 370 
1 371 
1 372 
1 373 
1 374 
1 375 
1 376 
1 377 
1 378 
1 379 
1 380 
1 381 
1 382 
1 383 
1 384 
1 385 
1 386 
1 387 
1 388 
1 389 
1 390 
1 391 
1 392 
1 393 
1 394 
1 395 
1 396 
1 397 
1 398 
1 399 
1 400 
1 401 
1 402 
1 403 
1 404 
1 405 
1 406 
1 407 
1 408 
1 409 
1 410 
1 411 
1 412 
1 413 
1 414 
1 415 
1 416 
1 417 
1 418 
1 419 
1 420 
1 421 
1 422 
1 423 
1 424 
1 425 
1 426 
1 427 
1 428 
1 429 
1 430 
1 431 
1 432 
1 433 
1 434 
1 435 
1 436 
1 437 
1 438 
1 439 
1 440 
1 441 
1 442 
1 443 
1 444 
1 445 
1 446 
1 447 
1 448 
1 449 
1 450 
1 451 
1 452 
1 453 
1 454 
1 455 
1 456 
1 457 

POINT_DATA 458
FIELD FieldData 7
id 1 458 int
90 207 18 199 32 70 76 96 59 
79 87 46 19 2 6 213 92 173 
278 45 21 95 50 238 113 100 33 
51 228 110 164 119 137 187 191 165 
221 48 274 306 4 80 86 132 54 
138 30 43 11 144 88 36 53 44 
217 74 128 115 195 174 69 102 185 
153 263 9 93 188 305 10 169 66 
149 168 116 89 22 275 151 172 154 
20 125 55 156 230 139 91 160 130 
148 85 64 175 14 114 236 28 104 
227 201 143 268 126 26 3 15 65 
107 5 97 219 29 57 120 292 40 
301 23 1 121 117 133 106 223 205 
42 140 41 25 71 226 60 136 200 
135 47 8 99 72 78 129 68 34 
232 112 142 37 103 75 177 254 27 
147 152 244 118 16 52 31 7 123 
56 262 249 250 303 178 299 24 77 
189 300 12 39 290 296 184 259 297 
94 287 279 167 63 98 161 239 266 
208 258 179 84 260 289 271 35 157 
67 286 202 134 197 255 288 58 111 
312 186 194 162 101 122 265 105 124 
49 155 302 145 61 83 298 284 210 
150 176 282 198 109 163 243 171 211 
240 13 182 277 280 158 294 304 291 
108 17 222 261 38 209 146 257 241 
283 245 295 141 270 235 285 248 73 
127 170 81 281 293 166 273 310 216 
276 253 264 82 311 62 307 267 214 
246 181 131 269 220 252 272 180 256 
314 318 247 234 309 242 206 190 251 
237 204 193 203 192 315 317 196 218 
229 224 231 313 212 316 324 308 233 
225 321 328 330 323 322 326 320 215 
319 331 183 327 325 329 343 339 341 
333 335 338 337 342 332 340 334 344 
336 357 159 352 353 356 349 351 348 
354 346 355 345 347 350 362 368 367 
359 369 366 364 363 365 370 358 382 
361 360 379 375 383 373 374 380 378 
371 377 381 372 376 396 388 386 394 
387 392 393 390 395 385 391 389 384 
405 398 400 408 403 401 404 407 406 
409 399 397 402 421 418 420 414 412 
411 419 416 433 429 410 413 415 417 
431 432 427 423 422 428 425 430 426 
446 424 444 439 445 435 437 436 442 
440 438 434 441 443 458 457 454 453 
447 451 449 456 448 455 450 452 
type 1 458 int
1 1 1 1 1 1 1 1 1 
1 1 1 1 1 1 1 1 1 
1 1 1 1 1 1 1 1 1 
1 1 1 1 1 1 1 1 1 
1 1 1 1 1 1 1 1 1 
1 1 1 1 1 1 1 1 1 
1 1 1 1 1 1 1 1 1 
1 1 1 1 1 1 1 1 1 
1 1 1 1 1 1 1 1 1 
1 1 1 1 1 1 1 1 1 
1 1 1 1 1 1 1 1 1 
1 1 1 1 1 1 1 1 1 
1 1 1 1 1 1 1 1 1 
1 1 1 1 1 1 1 1 1 
1 1 1 1 1 1 1 1 1 
1 1 1 1 1 1 1 1 1 
1 1 1 1 1 1 1 1 1 
1 1 1 1 1 1 1 1 1 
1 1 1 1 1 1 1 1 1 
1 1 1 1 1 1 1 1 1 
1 1 1 1 1 1 1 1 1 
1 1 1 1 1 1 1 1 1 
1 1 1 1 1 1 1 1 1 
1 1 1 1 1 1 1 1 1 
1 1 1 1 1 1 1 1 1 
1 1 1 1 1 1 1 1 1 
1 1 1 1 1 1 1 1 1 
1 1 1 1 1 1 1 1 1 
1 1 1 1 1 1 1 1 1 
1 1 1 1 1 1 1 1 1 
1 1 1 1 1 1 1 1 1 
1 1 1 1 1 1 1 1 1 
1 1 1 1 1 1 1 1 1 
1 1 1 1 1 1 1 1 1 
1 1 1 1 1 1 1 1 1 
1 1 1 1 1 1 1 1 1 
1 1 1 1 1 1 1 1 1 
1 1 1 1 1 1 1 1 1 
1 1 1 1 1 1 1 1 1 
1 1 1 1 1 1 1 1 1 
1 1 1 1 1 1 1 1 1 
1 1 1 1 1 1 1 1 1 
1 1 1 1 1 1 1 1 1 
1 1 1 1 1 1 1 1 1 
1 1 1 1 1 1 1 1 1 
1 1 1 1 1 1 1 1 1 
1 1 1 1 1 1 1 1 1 
1 1 1 1 1 1 1 1 1 
1 1 1 1 1 1 1 1 1 
1 1 1 1 1 1 1 1 1 
1 1 1 1 1 1 1 1 
i 3 458 int
0 0 0 0 0 0 0 0 0 
0 0 0 0 0 0 0 0 0 
0 0 0 0 0 0 0 0 0 
0 0 0 0 0 0 0 0 0 
0 0 0 0 0 0 0 0 0 
0 0 0 0 0 0 0 0 0 
0 0 0 0 0 0 0 0 0 
0 0 0 0 0 0 0 0 0 
0 0 0 0 0 0 0 0 0 
0 0 0 0 0 0 0 0 0 
0 0 0 0 0 0 0 0 0 
0 0 0 0 0 0 0 0 0 
0 0 0 0 0 0 0 0 0 
0 0 0 0 0 0 0 0 0 
0 0 0 0 0 0 0 0 0 
0 0 0 0 0 0 0 0 0 
0 0 0 0 0 0 0 0 0 
0 0 0 0 0 0 0 0 0 
0 0 0 0 0 0 0 0 0 
0 0 0 0 0 0 0 0 0 
0 0 0 0 0 0 0 0 0 
0 0 0 0 0 0 0 0 0 
0 0 0 0 0 0 0 0 0 
0 0 0 0 0 0 0 0 0 
0 0 0 0 0 0 0 0 0 
0 0 0 0 0 0 0 0 0 
0 0 0 0 0 0 0 0 0 
0 0 0 0 0 0 0 0 0 
0 0 0 0 0 0 0 0 0 
0 0 0 0 0 0 0 0 0 
0 0 0 0 0 0 0 0 0 
0 0 0 0 0 0 0 0 0 
0 0 0 0 0 0 0 0 0 
0 0 0 0 0 0 0 0 0 
0 0 0 0 0 0 0 0 0 
0 0 0 0 0 0 0 0 0 
0 0 0 0 0 0 0 0 0 
0 0 0 0 0 0 0 0 0 
0 0 0 0 0 0 0 0 0 
0 0 0 0 0 0 0 0 0 
0 0 0 0 0 0 0 0 0 
0 0 0 0 0 0 0 0 0 
0 0 0 0 0 0 0 0 0 
0 0 0 0 0 0 0 0 0 
0 0 0 0 0 0 0 0 0 
0 0 0 0 0 0 0 0 0 
0 0 0 0 0 0 0 0 0 
0 0 0 0 0 0 0 0 0 
0 0 0 0 0 0 0 0 0 
0 0 0 0 0 0 0 0 0 
0 0 0 0 0 0 0 0 0 
0 0 0 0 0 0 0 0 0 
0 0 0 0 0 0 0 0 0 
0 0 0 0 0 0 0 0 0 
0 0 0 0 0 0 0 0 0 
0 0 0 0 0 0 0 0 0 
0 0 0 0 0 0 0 0 0 
0 0 0 0 0 0 0 0 0 
0 0 0 0 0 0 0 0 0 
0 0 0 0 0 0 0 0 0 
0 0 0 0 0 0 0 0 0 
0 0 0 0 0 0 0 0 0 
0 0 0 0 0 0 0 0 0 
0 0 0 0 0 0 0 0 0 
0 0 0 0 0 0 0 0 0 
0 0 0 0 0 0 0 0 0 
0 0 0 0 0 0 0 0 0 
0 0 0 0 0 0 0 0 0 
0 0 0 0 0 0 0 0 0 
0 0 0 0 0 0 0 0 0 
0 0 0 0 0 0 0 0 0 
0 0 0 0 0 0 0 0 0 
0 0 0 0 0 0 0 0 0 
0 0 0 0 0 0 0 0 0 
0 0 0 0 0 0 0 0 0 
0 0 0 0 0 0 0 0 0 
0 0 0 0 0 0 0 0 0 
0 0 0 0 0 0 0 0 0 
0 0 0 0 0 0 0 0 0 
0 0 0 0 0 0 0 0 0 
0 0 0 0 0 0 0 0 0 
0 0 0 0 0 0 0 0 0 
0 0 0 0 0 0 0 0 0 
0 0 0 0 0 0 0 0 0 
0 0 0 0 0 0 0 0 0 
0 0 0 0 0 0 0 0 0 
0 0 0 0 0 0 0 0 0 
0 0 0 0 0 0 0 0 0 
0 0 0 0 0 0 0 0 0 
0 0 0 0 0 0 0 0 0 
0 0 0 0 0 0 0 0 0 
0 0 0 0 0 0 0 0 0 
0 0 0 0 0 0 0 0 0 
0 0 0 0 0 0 0 0 0 
0 0 0 0 0 0 0 0 0 
0 0 0 0 0 0 0 0 0 
0 0 0 0 0 0 0 0 0 
0 0 0 0 0 0 0 0 0 
0 0 0 0 0 0 0 0 0 
0 0 0 0 0 0 0 0 0 
0 0 0 0 0 0 0 0 0 
0 0 0 0 0 0 0 0 0 
0 0 0 0 0 0 0 0 0 
0 0 0 0 0 0 0 0 0 
0 0 0 0 0 0 0 0 0 
0 0 0 0 0 0 0 0 0 
0 0 0 0 0 0 0 0 0 
0 0 0 0 0 0 0 0 0 
0 0 0 0 0 0 0 0 0 
0 0 0 0 0 0 0 0 0 
0 0 0 0 0 0 0 0 0 
0 0 0 0 0 0 0 0 0 
0 0 0 0 0 0 0 0 0 
0 0 0 0 0 0 0 0 0 
0 0 0 0 0 0 0 0 0 
0 0 0 0 0 0 0 0 0 
0 0 0 0 0 0 0 0 0 
0 0 0 0 0 0 0 0 0 
0 0 0 0 0 0 0 0 0 
0 0 0 0 0 0 0 0 0 
0 0 0 0 0 0 0 0 0 
0 0 0 0 0 0 0 0 0 
0 0 0 0 0 0 0 0 0 
0 0 0 0 0 0 0 0 0 
0 0 0 0 0 0 0 0 0 
0 0 0 0 0 0 0 0 0 
0 0 0 0 0 0 0 0 0 
0 0 0 0 0 0 0 0 0 
0 0 0 0 0 0 0 0 0 
0 0 0 0 0 0 0 0 0 
0 0 0 0 0 0 0 0 0 
0 0 0 0 0 0 0 0 0 
0 0 0 0 0 0 0 0 0 
0 0 0 0 0 0 0 0 0 
0 0 0 0 0 0 0 0 0 
0 0 0 0 0 0 0 0 0 
0 0 0 0 0 0 0 0 0 
0 0 0 0 0 0 0 0 0 
0 0 0 0 0 0 0 0 0 
0 0 0 0 0 0 0 0 0 
0 0 0 0 0 0 0 0 0 
0 0 0 0 0 0 0 0 0 
0 0 0 0 0 0 0 0 0 
0 0 0 0 0 0 0 0 0 
0 0 0 0 0 0 0 0 0 
0 0 0 0 0 0 0 0 0 
0 0 0 0 0 0 0 0 0 
0 0 0 0 0 0 0 0 0 
0 0 0 0 0 0 0 0 0 
0 0 0 0 0 0 0 0 0 
0 0 0 0 0 0 0 0 0 
0 0 0 0 0 0 0 0 0 
0 0 0 0 0 0 
v 3 458 double
-0.0784674 0.0511183 -0.00526323 -0.061484 0.0761089 0.00764513 -0.086278 -0.0234578 -2.7557e-13 
0.0593828 0.0236322 -0.0147963 0.0271038 -0.0631896 0.00268151 0.0285956 -0.0315243 -2.8693e-09 
-0.0407584 0.032204 1.03696e-13 -0.019193 -0.0288408 -5.5711e-07 0.0226925 -0.0774239 3.5654e-13 
-0.0518384 0.027151 0.00415361 0.0113898 -0.00376271 0.0257349 -0.0493911 -0.149955 0.000270399 
0.00623502 -0.0180412 -4.65203e-13 -0.00679856 -0.0153195 -0.000109426 -0.055215 -0.0283932 -7.20572e-06 
0.104606 -0.130449 9.14756e-07 0.0211445 0.0102089 0.00825259 -0.146751 0.0611219 -5.96175e-10 
-0.141786 0.122002 -4.45968e-07 0.00469134 0.00355497 -9.37907e-13 -0.112797 -0.115907 0.0325998 
-0.159604 -0.161391 -1.70862e-07 0.0346113 -0.000363124 -2.76438e-10 0.0228531 0.0385723 0.017432 
0.045478 0.0628121 0.00628532 0.0382034 -0.0620106 -2.36471e-09 0.0435136 -0.0763682 0.00512208 
0.0667908 -0.0990891 0.0984196 0.0395312 0.0367954 0.0306603 0.0614916 0.00248949 -0.0190689 
0.0252519 0.182243 -0.00305349 -0.015452 -0.105567 -4.46122e-06 -0.43499 0.198504 0.31617 
0.0100264 0.0445454 -0.0123605 -0.0812217 0.17299 0.257714 -0.0676447 -0.122473 6.72593e-13 
0.0134286 0.0718451 -0.000353546 0.0210255 -0.00355601 0.0047613 0.0983883 0.0612883 0.102588 
-0.019475 0.305898 0.429348 -0.0165054 0.0956155 0.115583 -0.0405277 0.0209982 -0.0030908 
0.0183819 -0.00629991 -5.62596e-10 0.0404889 0.0438372 0.0140638 0.0274223 0.0239219 -0.000412312 
0.029698 0.0091351 3.37209e-05 0.0514607 0.0628872 0.0152302 -0.0993064 -0.039456 4.05821e-05 
0.112207 -0.0654714 8.22846e-06 0.0123044 -0.0289472 0.000151835 -0.0381431 0.0142298 -0.0273272 
0.092509 -0.0242123 1.27855e-10 0.065771 -0.0110507 5.26296e-11 0.107423 0.0913317 2.5492e-06 
0.159104 -0.0924284 0.000145926 0.0307351 0.155183 9.76335e-12 0.0112105 0.0049315 -9.88404e-08 
-0.0678408 0.100551 0.00171063 0.211565 -0.0707052 0.0931679 0.122876 -0.0561259 -0.0797198 
0.00796971 -0.0164002 -0.0233127 0.0573397 -0.00441992 0.000111756 0.0212656 -0.0173308 -0.000328707 
-0.0226625 -0.254312 0.0762009 -0.0912888 -0.118736 -1.24832e-11 0.250378 -0.0564756 0.0139844 
0.0142631 0.0171028 -0.0240267 -0.0497384 0.0329486 0.00545665 0.0107695 -0.524828 0.345598 
-0.0350907 -0.117947 -0.0280292 -0.0389736 0.00568821 0.000139317 0.0342872 -0.0839362 -9.33323e-14 
0.0690097 0.113515 0.0285423 0.0122359 -0.136294 -8.59372e-14 -0.023391 0.013646 0.0122819 
-0.0226688 0.030382 2.30353e-06 0.0166768 0.115426 0.0200015 0.190963 0.212412 -0.00144849 
0.0344703 0.0658725 -0.00502845 -0.0307803 0.0129897 -0.000159492 -0.00651117 -0.137052 0.00798715 
0.0953394 0.0821064 -1.98684e-10 -0.0120667 0.132246 -0.146955 0.0225003 0.0927463 -1.1485e-05 
-0.00975682 0.0196997 -0.00765267 0.00733539 -0.0573966 -0.0179373 0.0409825 0.00685251 0.0423398 
-0.047255 -0.0367553 0.0355066 -0.0727778 -0.0959582 0.0417507 0.0577869 -0.0321766 0.0805815 
0.0342787 -0.0585669 -6.76288e-10 -0.00465706 -0.19836 -4.8581e-07 -0.0500543 -0.0158899 4.2313e-08 
-0.235389 0.0494898 1.80178e-07 0.0917987 -0.0851444 0.000250879 0.0708669 -0.240657 0.0033601 
-0.12916 -0.211652 0.339481 0.0260973 0.0280124 -0.000861272 0.147303 -0.0938251 -0.0272566 
0.0557497 0.0570653 0.000539272 -0.168133 -0.119958 1.95932e-08 0.0839731 -0.0536135 -0.0343271 
-0.0908186 -0.0537602 0.0306014 0.0241343 0.0059031 -0.0280576 0.0409585 -0.00734405 -3.27603e-12 
-0.030478 -0.0744957 -4.70886e-12 0.0490701 -0.180747 0.0412542 -0.0441333 -0.0247008 0.0422784 
-0.0734239 -0.0922737 0.00831279 -0.0429934 -0.0521015 -0.000140523 -0.112523 -0.0105944 0.0712168 
-0.254093 -0.0240247 -0.000108495 -0.0142784 0.0122041 -3.08955e-06 -0.0491053 0.0023856 -0.000165867 
0.00139066 -0.11565 -0.0769999 -0.0692306 -0.00369289 -0.135623 0.00119758 -0.0468413 -5.28855e-05 
0.0519737 -0.331756 0.192023 -0.0425848 0.0203257 -2.89611e-07 0.0145532 0.00244644 0.0114469 
0.0266526 0.017245 0.00624684 -0.0015412 0.17539 0.0232237 -0.047581 0.110373 -0.184019 
-0.0407331 0.0203574 -4.99272e-07 -0.091709 0.132528 -0.0221798 -0.013386 0.0343701 -1.6507e-09 
-0.0255347 -0.137231 -8.01098e-07 -0.117406 0.116192 -0.0769764 0.00564211 0.00909274 0.000889993 
-0.0909462 -0.0354532 -4.65202e-13 -0.0414456 0.0901016 4.04847e-14 -0.3623 0.164801 0.0522843 
0.0301593 0.110219 -0.0712623 0.03984 0.0684653 -0.0004929 -0.0316886 -0.0168988 -1.40522e-06 
-0.00080054 0.00421589 -0.00215784 0.00602289 0.0147256 2.42526e-07 0.139816 0.0179258 0.0148931 
-0.0986202 0.000834631 -0.0825266 0.0517702 -0.00555147 -0.000405591 -0.0139828 -0.02501 2.24898e-06 
-0.0200695 0.0194699 -3.2004e-07 0.0335777 -0.0109915 0.00273365 0.0360887 -0.00907839 4.69218e-06 
-0.176156 0.019135 0.0317196 -0.0686439 0.116495 0.0303658 0.089764 0.0952992 -1.62316e-10 
-0.019826 -0.035277 -0.000767358 0.0225965 0.0356981 -1.30403e-08 -0.0401135 0.0192118 0.00341711 
-0.119953 0.0929593 -0.00568519 0.088727 0.478434 0.000499795 -0.0236365 -0.0185308 -0.00361198 
0.00382959 0.0246228 -0.000311776 -0.0691222 -0.0682633 -0.000498735 -0.105921 0.0465547 0.114494 
-0.0823107 0.225172 -0.0138912 -0.00729608 -0.00925101 0.00151101 0.00166755 -0.00952814 -0.000568997 
0.0250142 0.0375514 0.000278316 0.0341245 -0.0284291 9.71602e-11 0.0776346 0.121998 -0.00212774 
0.0108673 -0.00569592 0.00184155 0.00679987 0.0245211 -0.16137 -0.0105916 -0.259425 0.0971319 
0.0638776 -0.0263852 -0.207832 -0.0520727 -0.499646 0.262216 -0.0924654 -0.0196514 -0.0288014 
0.223395 0.0416996 0.395307 -0.115659 0.130447 -0.210087 0.151651 0.0424161 -0.10196 
0.166844 -0.332093 -0.0395981 0 0 0.461281 0.188762 -0.283382 0.38834 
0.073301 0.0566176 0.266748 -0.0312334 -0.466743 0.0180494 0.213623 -0.548831 0.296401 
0.10355 -0.0252071 0.0178973 0.149814 0.0113744 0.084918 -0.130495 -0.425229 0.396045 
-0.0716942 -0.230352 0.169421 0.0698031 -0.323153 0.202059 -0.305648 0.211758 0.206708 
0.0523372 0.0903399 -0.121468 0.053966 -0.0508199 0.0169529 -0.0186535 -0.306434 0.279964 
0.0185799 0.0197856 -0.124811 0.0622536 -0.142921 -0.520235 -0.141522 -0.0533698 0.0844704 
0.00359641 -0.0524395 0.0584771 0.072302 -0.189476 0.0470962 0.297883 0.0822063 -0.283178 
-0.0698132 0.117207 -0.0499356 -0.014226 -0.00638997 -0.142612 -0.360805 0.199837 0.105011 
0.134378 0.189184 0.0469678 0.247267 -0.265531 -0.210105 0.0758731 -0.16323 -0.0690661 
-0.00252473 -0.00669742 0.0227457 -0.0115175 -0.0686428 0.0712579 -0.127804 -0.0167518 -0.122688 
-0.0282304 -0.0210467 -0.047418 0.0638139 -0.102911 -0.170365 0.266034 0.00902877 -0.190588 
0.158764 0.544303 -0.168128 -0.211807 0.260198 0.0467139 -0.0136764 0.161272 -0.0851414 
-0.146311 -0.106384 0.367875 -0.0746419 0.0985618 0.24194 -0.0655394 -0.019519 0.154779 