# vtk DataFile Version 4.0
Generated by LIGGGHTS
ASCII
DATASET POLYDATA
POINTS 820 float
-0.0100169 -0.0485208 0.0811205 -0.00460559 -0.0493972 0.0811205 -0.000791749 -0.0486699 0.0821768 
0.00431161 -0.0484623 0.0811183 0.00727764 -0.0490764 0.0811201 0.0102415 -0.0486142 0.081121 
0.0131357 -0.0478267 0.0811195 -0.0212022 -0.044821 0.0811205 -0.0181627 -0.0445537 0.0811205 
-0.0159383 -0.0470123 0.0811204 -0.0147373 -0.0442367 0.0811205 -0.0129372 -0.0471311 0.0811204 
-0.00676036 -0.0467073 0.0811177 -0.00279459 -0.0449644 0.0811205 0.00162478 -0.0455711 0.0812685 
0.00555657 -0.0447973 0.0821171 0.0111408 -0.045228 0.0811205 0.0142611 -0.0445353 0.0811203 
0.0160118 -0.0469715 0.0811297 0.0183683 -0.0450548 0.0811205 -0.0280322 -0.0409511 0.0811209 
-0.0238461 -0.043393 0.0811205 -0.0212773 -0.0403474 0.08211 -0.0174195 -0.0413198 0.0811216 
-0.0115693 -0.0412729 0.0811335 -0.00661064 -0.0432394 0.0811205 -0.00522611 -0.0404906 0.0811205 
-0.00243276 -0.0419807 0.0811205 0.00797183 -0.0415832 0.0811205 0.0121832 -0.0410489 0.0820967 
0.0193163 -0.0421953 0.0811205 0.0225078 -0.0438079 0.0811205 0.0256337 -0.0412468 0.0821182 
-0.0326365 -0.0370244 0.0811205 -0.0306731 -0.0391112 0.0820315 -0.0282825 -0.0375453 0.0811202 
-0.0251426 -0.0401615 0.0811197 -0.0106279 -0.0383537 0.0811837 -0.0033214 -0.0380073 0.0811205 
0.00459879 -0.0410353 0.081128 0.00806793 -0.0382582 0.0813415 0.0112634 -0.0371556 0.0811205 
0.0162951 -0.0398139 0.0811205 0.0193501 -0.0381437 0.0811205 0.0219964 -0.0396328 0.0811205 
0.0250968 -0.0372429 0.0811205 0.028037 -0.0379079 0.0811199 -0.0349953 -0.0337683 0.0821183 
-0.0299158 -0.0339376 0.0821183 -0.025984 -0.0356146 0.081121 -0.023163 -0.0366788 0.0811204 
-0.0208151 -0.0346799 0.0811205 -0.0166868 -0.0355187 0.0811205 -0.0106239 -0.0352773 0.0811255 
-0.00773922 -0.0344417 0.0811207 0.00316592 -0.0336805 0.0821809 0.0130202 -0.0346764 0.0811205 
0.016617 -0.0345557 0.0811205 0.0226273 -0.0338235 0.082119 0.0276559 -0.0340202 0.082118 
0.031792 -0.0368275 0.0821182 0.0364383 -0.0336909 0.0811197 -0.037772 -0.0310208 0.0811205 
-0.02427 -0.0319726 0.0811858 -0.0100314 -0.0323213 0.0811299 -0.00602258 -0.0309648 0.0821241 
-0.00217483 -0.0329284 0.0811205 0.0115771 -0.0291845 0.0821901 0.0137835 -0.0317335 0.0811205 
0.0189406 -0.0326628 0.081127 0.0197316 -0.0296382 0.0811205 0.0309252 -0.0314676 0.0811205 
0.033415 -0.0332929 0.0811205 0.0337552 -0.0302928 0.0811205 0.0380728 -0.030177 0.0821189 
-0.0421625 -0.0261836 0.0811203 -0.0401896 -0.0286626 0.0811205 -0.0367349 -0.0280752 0.0811205 
-0.0329716 -0.0290415 0.0821258 -0.0279211 -0.0286658 0.0829091 -0.0111326 -0.0252217 0.0821165 
-0.00820417 -0.0277627 0.0811223 -0.00138783 -0.0290708 0.0821183 0.00673183 -0.0283051 0.0821183 
0.0167357 -0.0271773 0.0821184 0.0223016 -0.0277469 0.081423 0.0261272 -0.0292427 0.0821181 
0.0305998 -0.0268292 0.0811786 0.034483 -0.0264453 0.0821143 0.0411407 -0.0278186 0.0811129 
-0.041272 -0.023289 0.0811139 -0.038907 -0.0258765 0.0811205 -0.0353149 -0.0235882 0.0811205 
-0.032321 -0.0237785 0.0811218 -0.0291605 -0.0253141 0.0811188 -0.00658489 -0.0252117 0.0812526 
-0.00276241 -0.025346 0.0811205 0.000253441 -0.0253107 0.0811205 0.00780244 -0.0235821 0.0811204 
0.0111927 -0.0253491 0.0839794 0.0152471 -0.0231274 0.0811205 0.0184168 -0.0230596 0.0811205 
0.0384688 -0.0262978 0.08112 0.0427251 -0.0252613 0.0811195 -0.0455357 -0.0197869 0.0811205 
-0.0442301 -0.0225007 0.0811201 -0.0407964 -0.0194339 0.0821181 -0.0378065 -0.0218999 0.0811198 
-0.0342132 -0.0204136 0.0811205 -0.0311677 -0.0203128 0.0811205 -0.027216 -0.0215202 0.0821182 
-0.0229466 -0.0208952 0.0811205 -0.0187564 -0.0227013 0.0821183 -0.0136902 -0.0208151 0.0822762 
-0.00710857 -0.0200517 0.0812206 -0.00398581 -0.0220943 0.0811177 0.00395944 -0.022894 0.0821182 
0.00683407 -0.0199355 0.0811251 0.010587 -0.0205151 0.0823735 0.0145115 -0.0196026 0.0811205 
0.0177251 -0.0195414 0.0811203 0.0204838 -0.0207059 0.0814043 0.0271604 -0.0214607 0.0821183 
0.0325795 -0.0208569 0.0821145 0.0375825 -0.0225291 0.082119 0.0403119 -0.0197475 0.0811204 
0.0415171 -0.0224997 0.0811213 0.0449529 -0.0208924 0.0811196 -0.0456582 -0.0158952 0.0821178 
-0.0383966 -0.01621 0.0811016 -0.0256775 -0.0172721 0.0811205 -0.0212687 -0.017285 0.081374 
-0.0183712 -0.0188316 0.0811272 -0.0156024 -0.0174974 0.0811166 -0.0117338 -0.0168276 0.0811198 
-0.0100181 -0.0192875 0.0811203 -0.00441754 -0.0184011 0.0811203 -0.00113237 -0.0161708 0.0821177 
0.00276709 -0.0164331 0.0811205 0.00576541 -0.0168806 0.0811202 0.0124983 -0.0171086 0.0811205 
0.032726 -0.0167821 0.0811211 0.0372321 -0.0183751 0.0811262 0.0386483 -0.0156939 0.0811121 
0.0428077 -0.0167817 0.0821161 -0.0407408 -0.0129067 0.0821174 -0.0347062 -0.0151188 0.0821239 
-0.0289044 -0.0154665 0.0811205 -0.0238932 -0.0145779 0.0811202 -0.026577 -0.0130652 0.0811548 
-0.0209781 -0.013782 0.0812115 -0.0178449 -0.0145228 0.0811205 -0.0105406 -0.0139276 0.0811205 
-0.00668013 -0.0147242 0.0821183 0.00968002 -0.0151179 0.0811205 0.0119393 -0.013031 0.0811206 
0.0155806 -0.0143674 0.0821141 0.0259676 -0.0119267 0.0821189 0.031154 -0.0137401 0.0811212 
0.0357123 -0.0147384 0.0811205 0.0410611 -0.0131536 0.0811216 0.0447713 -0.0134144 0.0811211 
0.0471974 -0.0155164 0.0811205 -0.0469354 -0.0110127 0.0821166 -0.037119 -0.0114897 0.0811205 
-0.0349561 -0.0093546 0.0811207 -0.024395 -0.010884 0.0811205 -0.0207574 -0.0107372 0.0811793 
-0.014524 -0.00956387 0.0811229 -0.00904534 -0.00972822 0.0821183 -0.00211667 -0.0112708 0.0821162 
0.00373153 -0.012229 0.0811205 0.00748687 -0.0111292 0.0821181 0.0112309 -0.0101079 0.0811206 
0.0380104 -0.0127741 0.0811386 0.0404974 -0.0102038 0.0811114 0.0477023 -0.0125356 0.0811201 
-0.0490701 -0.00761594 0.0811205 -0.044828 -0.007661 0.0811205 -0.0407694 -0.00723696 0.0822737 
-0.036332 -0.00661965 0.0814468 -0.0320871 -0.00846923 0.0811201 -0.0295076 -0.00655386 0.0811205 
-0.0267401 -0.00813583 0.0811491 -0.0227183 -0.00741435 0.0823863 -0.0167283 -0.00737501 0.0811178 
-0.0122223 -0.00750967 0.0811205 -0.00878884 -0.00547529 0.0811205 0.00171561 -0.00544153 0.0811481 
0.0129973 -0.00661665 0.0821201 0.0180555 -0.00732144 0.0811205 0.028785 -0.00758041 0.0821175 
0.0377276 -0.00845889 0.0811195 0.0410577 -0.00725023 0.0815076 0.0452582 -0.00905922 0.0822968 
0.0489359 -0.00772591 0.0811147 -0.0490356 -0.00444314 0.0811205 -0.0390713 -0.00324549 0.0811203 
-0.0287583 -0.00215143 0.0821183 -0.0261763 -0.00507533 0.0811205 -0.0122997 -0.00426563 0.0811219 
-0.00676577 -0.00290561 0.0811205 -0.00266867 -0.00485712 0.0821092 0.0029877 -0.00271091 0.0811204 
0.0174107 -0.00151002 0.0811205 0.0299303 -0.00226062 0.0811205 0.0341947 -0.00536312 0.0828827 
0.0386067 -0.00409379 0.0821182 0.0424753 -0.00463655 0.0811246 0.0494145 -0.00476241 0.0811205 
-0.0495402 -0.00146807 0.0811205 -0.0471511 0.00075849 0.0811205 -0.0442414 -0.000206262 0.0811195 
-0.0416699 -0.00175696 0.0811196 -0.0416387 0.00152444 0.0811205 -0.0362507 -0.000524966 0.0821182 
-0.0323591 -0.000673018 0.0811206 -0.0249416 -0.000530338 0.0811205 -0.0173573 0.00127705 0.0821148 
-0.0113337 -0.00042746 0.0821128 0.00961939 0.000560347 0.0811472 0.0133246 5.95701e-05 0.0811205 
0.0216447 0.00107515 0.0811203 0.0294556 0.000752208 0.0811206 0.032393 0.000134367 0.0811204 
0.0427898 0.000600583 0.0811205 0.0495223 -0.00176431 0.0811201 -0.049519 0.00323042 0.0811244 
-0.0457896 0.00349969 0.0811205 -0.041753 0.00462478 0.0811194 -0.0391108 0.00320768 0.0811201 
-0.0361687 0.00378094 0.0811565 -0.0284611 0.0021695 0.081202 -0.0244701 0.00286186 0.0815294 
-0.00555165 0.00170023 0.0811205 -0.00808845 0.00363756 0.0811205 0.000187869 0.003161 0.0811205 
0.00821966 0.00418387 0.0821175 0.0123577 0.00435409 0.0811205 0.0174666 0.00269849 0.0821182 
0.0372767 0.00282122 0.0811205 0.0402495 0.00222772 0.0811205 0.0435887 0.00454314 0.0821183 
0.0485311 0.00198784 0.0821169 -0.0481731 0.00686525 0.0821398 -0.0433433 0.00815321 0.0821175 
-0.0376677 0.00646711 0.0811203 -0.0271037 0.00651976 0.0811187 -0.0240978 0.00801354 0.0811205 
-0.0213271 0.00528059 0.0811205 -0.0188137 0.00695203 0.0811205 -0.00855139 0.00715979 0.0811357 
-0.00480478 0.00579302 0.0821183 0.00192768 0.00802449 0.0821037 0.0217431 0.00551621 0.082152 
0.0317453 0.00841841 0.0820939 0.0366748 0.00799428 0.0821183 0.0399643 0.00593519 0.0811205 
0.0480461 0.00696158 0.082116 -0.0427556 0.012131 0.0811196 -0.0390791 0.0107624 0.0821609 
-0.0349173 0.0103251 0.0811205 -0.026947 0.0122424 0.0811205 -0.0198858 0.0110811 0.081497 
-0.0156881 0.0101555 0.0811205 -0.00639728 0.0114056 0.0811205 0.00902541 0.00931393 0.0813207 
0.0196278 0.0115971 0.0811205 0.0234607 0.010233 0.0821188 0.0282864 0.011548 0.0821889 
0.0390142 0.0113243 0.0811214 0.0428166 0.00948409 0.0821178 -0.0373528 0.0154513 0.0821188 
-0.033317 0.0155512 0.0811205 -0.0218423 0.0133764 0.0811264 -0.0145122 0.0145527 0.0811597 
-0.00554212 0.0166516 0.0833469 0.0100719 0.0139329 0.0831679 0.0151498 0.0131806 0.0811515 
0.0248324 0.0139241 0.0811205 0.0378182 0.0150274 0.082982 0.04286 0.0144963 0.0821185 
-0.0462914 0.0180421 0.0811199 -0.0424032 0.0180734 0.0821175 -0.0312523 0.0177357 0.0811203 
-0.0235037 0.0168891 0.0821759 -0.0194408 0.0192269 0.0811403 -0.0172278 0.0164542 0.0811085 
0.00255637 0.0188266 0.08115 0.00649662 0.0174446 0.0821435 0.0102274 0.0195518 0.0814031 
0.0125611 0.0176756 0.0811794 0.0206312 0.01559 0.0843471 0.0240917 0.01706 0.0817038 
0.0308101 0.0158655 0.082242 0.0433488 0.0184008 0.0811205 0.040262 0.0180458 0.0811284 
0.0463285 0.0177158 0.0811179 -0.044992 0.0209536 0.0811204 -0.0395691 0.0214265 0.08112 
-0.0347201 0.019725 0.0821192 -0.031147 0.0212149 0.0811201 -0.027416 0.0200223 0.0821167 
-0.0231014 0.0224995 0.0821855 -0.00737353 0.0196449 0.0812423 0.00472591 0.0226363 0.0811205 
0.00769224 0.0212509 0.0811205 0.0199274 0.0206023 0.0811242 0.0245158 0.0202934 0.0815231 
[...]
POINT_DATA 820
FIELD FieldData 7
id 1 820 int
32 287 171 90 240 46 95 6 262 
290 199 96 189 166 70 211 12 394 
18 396 457 76 119 250 39 59 342 
24 515 423 19 98 272 178 153 239 
431 77 531 366 541 293 87 375 33 
50 444 94 2 316 266 273 137 204 
407 371 45 592 398 258 92 238 113 
280 252 220 207 549 364 21 165 256 
51 167 184 383 173 278 222 310 526 
497 182 296 158 426 359 596 498 63 
108 428 84 164 338 13 421 580 35 
345 354 495 110 187 48 274 132 263 
202 352 259 433 412 260 480 100 384 
237 234 180 186 353 449 157 221 217 
179 86 144 191 496 304 161 193 337 
101 318 30 416 291 492 463 74 69 
67 134 4 279 329 218 36 151 138 
54 595 637 332 43 11 377 255 102 
128 185 88 115 351 264 38 53 169 
491 195 188 493 174 10 154 168 236 
85 349 194 331 271 546 507 275 276 
172 44 618 355 505 372 265 58 545 
385 369 469 336 400 367 114 324 312 
160 494 192 368 253 148 356 116 233 
532 64 146 247 557 230 529 567 203 
315 288 149 124 325 89 381 519 451 
162 175 9 437 111 387 350 241 145 
130 105 209 306 402 141 62 125 242 
93 311 425 343 257 201 143 268 107 
83 405 22 465 534 97 409 15 14 
227 42 210 225 26 481 589 456 432 
467 399 248 61 235 126 159 483 625 
599 3 503 301 321 155 448 267 393 
302 466 57 5 441 513 270 581 598 
555 181 326 122 508 420 327 29 1 
415 20 521 224 413 516 389 223 298 
231 348 41 47 121 25 8 292 127 
436 533 361 309 439 205 219 442 140 
135 34 404 376 317 347 536 99 23 
136 200 78 129 152 176 571 117 443 
246 378 106 40 60 344 73 72 103 
244 177 214 133 71 150 579 380 340 
27 147 37 75 118 131 170 215 285 
461 52 254 112 81 7 142 391 458 
212 445 109 56 16 414 163 190 226 
123 243 251 31 299 479 303 511 300 
228 390 79 358 624 619 213 523 249 
597 634 462 305 277 661 547 542 548 
565 645 406 553 468 600 473 283 562 
647 478 216 286 392 429 346 650 626 
294 613 506 517 621 489 17 229 422 
357 464 330 622 360 197 636 554 476 
454 363 438 395 374 66 308 314 295 
648 418 591 333 139 459 535 334 490 
520 261 403 323 641 561 365 322 120 
631 156 104 610 609 55 206 430 510 
49 475 447 455 573 563 65 382 501 
82 654 550 509 470 453 440 339 341 
524 435 632 313 537 434 373 574 530 
417 572 446 460 370 635 500 245 477 
68 578 488 410 411 424 232 487 196 
282 663 419 328 198 484 499 482 388 
335 452 307 281 582 544 486 642 269 
362 386 608 603 660 662 80 556 552 
472 319 646 551 630 649 657 588 91 
584 28 289 623 543 656 655 587 659 
514 640 602 512 643 518 397 651 629 
669 653 633 627 558 678 471 612 652 
284 504 450 570 664 593 474 427 559 
320 639 614 208 620 667 607 297 576 
594 617 540 528 628 183 560 665 606 
379 502 615 644 538 585 605 673 616 
401 611 485 638 577 668 575 674 586 
604 569 408 675 539 527 672 670 671 
525 658 676 601 677 666 590 682 522 
681 680 684 683 566 687 685 690 568 
686 679 688 691 701 689 699 564 583 
702 695 693 692 698 696 697 700 694 
704 703 708 713 710 711 709 706 707 
714 717 715 716 712 724 725 705 718 
721 722 723 727 726 728 743 730 719 
720 737 729 742 731 734 738 732 735 
740 736 739 741 744 733 751 750 746 
745 754 748 752 747 755 753 756 749 
767 758 765 764 761 762 769 760 757 
763 766 768 759 778 779 776 777 781 
775 773 782 770 774 780 772 771 786 
784 789 793 787 785 792 783 788 791 
790 794 798 805 806 800 797 807 799 
803 795 802 813 804 801 796 818 810 
817 819 808 816 820 811 814 809 815 
812 
type 1 820 int
1 1 1 1 1 1 1 1 1 
1 1 1 1 1 1 1 1 1 
1 1 1 1 1 1 1 1 1 
1 1 1 1 1 1 1 1 1 
1 1 1 1 1 1 1 1 1 
1 1 1 1 1 1 1 1 1 
1 1 1 1 1 1 1 1 1 
1 1 1 1 1 1 1 1 1 
1 1 1 1 1 1 1 1 1 
1 1 1 1 1 1 1 1 1 
1 1 1 1 1 1 1 1 1 
1 1 1 1 1 1 1 1 1 
1 1 1 1 1 1 1 1 1 
1 1 1 1 1 1 1 1 1 
1 1 1 1 1 1 1 1 1 
1 1 1 1 1 1 1 1 1 
1 1 1 1 1 1 1 1 1 
1 1 1 1 1 1 1 1 1 
1 1 1 1 1 1 1 1 1 
1 1 1 1 1 1 1 1 1 
1 1 1 1 1 1 1 1 1 
1 1 1 1 1 1 1 1 1 
1 1 1 1 1 1 1 1 1 
1 1 1 1 1 1 1 1 1 
1 1 1 1 1 1 1 1 1 
1 1 1 1 1 1 1 1 1 
1 1 1 1 1 1 1 1 1 
1 1 1 1 1 1 1 1 1 
1 1 1 1 1 1 1 1 1 
1 1 1 1 1 1 1 1 1 
1 1 1 1 1 1 1 1 1 
1 1 1 1 1 1 1 1 1 
1 1 1 1 1 1 1 1 1 
1 1 1 1 1 1 1 1 1 
1 1 1 1 1 1 1 1 1 
1 1 1 1 1 1 1 1 1 
1 1 1 1 1 1 1 1 1 
1 1 1 1 1 1 1 1 1 
1 1 1 1 1 1 1 1 1 
1 1 1 1 1 1 1 1 1 
1 1 1 1 1 1 1 1 1 
1 1 1 1 1 1 1 1 1 
1 1 1 1 1 1 1 1 1 
1 1 1 1 1 1 1 1 1 
1 1 1 1 1 1 1 1 1 
1 1 1 1 1 1 1 1 1 
1 1 1 1 1 1 1 1 1 
1 1 1 1 1 1 1 1 1 
1 1 1 1 1 1 1 1 1 
1 1 1 1 1 1 1 1 1 
1 1 1 1 1 1 1 1 1 
1 1 1 1 1 1 1 1 1 
1 1 1 1 1 1 1 1 1 
1 1 1 1 1 1 1 1 1 
1 1 1 1 1 1 1 1 1 
1 1 1 1 1 1 1 1 1 
1 1 1 1 1 1 1 1 1 
1 1 1 1 1 1 1 1 1 
1 1 1 1 1 1 1 1 1 
1 1 1 1 1 1 1 1 1 
1 1 1 1 1 1 1 1 1 
1 1 1 1 1 1 1 1 1 
1 1 1 1 1 1 1 1 1 
1 1 1 1 1 1 1 1 1 
1 1 1 1 1 1 1 1 1 
1 1 1 1 1 1 1 1 1 
1 1 1 1 1 1 1 1 1 
1 1 1 1 1 1 1 1 1 
1 1 1 1 1 1 1 1 1 
1 1 1 1 1 1 1 1 1 
1 1 1 1 1 1 1 1 1 
1 1 1 1 1 1 1 1 1 
1 1 1 1 1 1 1 1 1 
1 1 1 1 1 1 1 1 1 
1 1 1 1 1 1 1 1 1 
1 1 1 1 1 1 1 1 1 
1 1 1 1 1 1 1 1 1 
1 1 1 1 1 1 1 1 1 
1 1 1 1 1 1 1 1 1 
1 1 1 1 1 1 1 1 1 
1 1 1 1 1 1 1 1 1 
1 1 1 1 1 1 1 1 1 
1 1 1 1 1 1 1 1 1 
1 1 1 1 1 1 1 1 1 
1 1 1 1 1 1 1 1 1 
1 1 1 1 1 1 1 1 1 
1 1 1 1 1 1 1 1 1 
1 1 1 1 1 1 1 1 1 
1 1 1 1 1 1 1 1 1 
1 1 1 1 1 1 1 1 1 
1 1 1 1 1 1 1 1 1 
1 
i 3 820 int
0 0 0 0 0 0 0 0 0 
0 0 0 0 0 0 0 0 0 
0 0 0 0 0 0 0 0 0 
0 0 0 0 0 0 0 0 0 
0 0 0 0 0 0 0 0 0 
0 0 0 0 0 0 0 0 0 
0 0 0 0 0 0 0 0 0 
0 0 0 0 0 0 0 0 0 
0 0 0 0 0 0 0 0 0 
0 0 0 0 0 0 0 0 0 
0 0 0 0 0 0 0 0 0 
0 0 0 0 0 0 0 0 0 
0 0 0 0 0 0 0 0 0 
0 0 0 0 0 0 0 0 0 
0 0 0 0 0 0 0 0 0 
0 0 0 0 0 0 0 0 0 
0 0 0 0 0 0 0 0 0 
0 0 0 0 0 0 0 0 0 
0 0 0 0 0 0 0 0 0 
0 0 0 0 0 0 0 0 0 
0 0 0 0 0 0 0 0 0 
0 0 0 0 0 0 0 0 0 
0 0 0 0 0 0 0 0 0 
0 0 0 0 0 0 0 0 0 
0 0 0 0 0 0 0 0 0 
0 0 0 0 0 0 0 0 0 
0 0 0 0 0 0 0 0 0 
0 0 0 0 0 0 0 0 0 
0 0 0 0 0 0 0 0 0 
0 0 0 0 0 0 0 0 0 
0 0 0 0 0 0 0 0 0 
0 0 0 0 0 0 0 0 0 
0 0 0 0 0 0 0 0 0 
0 0 0 0 0 0 0 0 0 
0 0 0 0 0 0 0 0 0 
0 0 0 0 0 0 0 0 0 
0 0 0 0 0 0 0 0 0 
0 0 0 0 0 0 0 0 0 
0 0 0 0 0 0 0 0 0 
0 0 0 0 0 0 0 0 0 
0 0 0 0 0 0 0 0 0 
0 0 0 0 0 0 0 0 0 
0 0 0 0 0 0 0 0 0 
0 0 0 0 0 0 0 0 0 
0 0 0 0 0 0 0 0 0 
0 0 0 0 0 0 0 0 0 
0 0 0 0 0 0 0 0 0 
0 0 0 0 0 0 0 0 0 
0 0 0 0 0 0 0 0 0 
0 0 0 0 0 0 0 0 0 
0 0 0 0 0 0 0 0 0 
0 0 0 0 0 0 0 0 0 
0 0 0 0 0 0 0 0 0 
0 0 0 0 0 0 0 0 0 
0 0 0 0 0 0 0 0 0 
0 0 0 0 0 0 0 0 0 
0 0 0 0 0 0 0 0 0 
0 0 0 0 0 0 0 0 0 
0 0 0 0 0 0 0 0 0 
0 0 0 0 0 0 0 0 0 
0 0 0 0 0 0 0 0 0 
0 0 0 0 0 0 0 0 0 
0 0 0 0 0 0 0 0 0 
0 0 0 0 0 0 0 0 0 
0 0 0 0 0 0 0 0 0 
0 0 0 0 0 0 0 0 0 
0 0 0 0 0 0 0 0 0 
0 0 0 0 0 0 0 0 0 
0 0 0 0 0 0 0 0 0 
0 0 0 0 0 0 0 0 0 
0 0 0 0 0 0 0 0 0 
0 0 0 0 0 0 0 0 0 
0 0 0 0 0 0 0 0 0 
0 0 0 0 0 0 0 0 0 
0 0 0 0 0 0 0 0 0 
0 0 0 0 0 0 0 0 0 
0 0 0 0 0 0 0 0 0 
0 0 0 0 0 0 0 0 0 
0 0 0 0 0 0 0 0 0 
0 0 0 0 0 0 0 0 0 
0 0 0 0 0 0 0 0 0 
0 0 0 0 0 0 0 0 0 
0 0 0 0 0 0 0 0 0 
0 0 0 0 0 0 0 0 0 
0 0 0 0 0 0 0 0 0 
0 0 0 0 0 0 0 0 0 
0 0 0 0 0 0 0 0 0 
0 0 0 0 0 0 0 0 0 
0 0 0 0 0 0 0 0 0 
0 0 0 0 0 0 0 0 0 
0 0 0 0 0 0 0 0 0 
0 0 0 0 0 0 0 0 0 
0 0 0 0 0 0 0 0 0 
0 0 0 0 0 0 0 0 0 
0 0 0 0 0 0 0 0 0 
0 0 0 0 0 0 0 0 0 
0 0 0 0 0 0 0 0 0 
0 0 0 0 0 0 0 0 0 
0 0 0 0 0 0 0 0 0 
0 0 0 0 0 0 0 0 0 
0 0 0 0 0 0 0 0 0 
0 0 0 0 0 0 0 0 0 
0 0 0 0 0 0 0 0 0 
0 0 0 0 0 0 0 0 0 
0 0 0 0 0 0 0 0 0 
0 0 0 0 0 0 0 0 0 
0 0 0 0 0 0 0 0 0 
0 0 0 0 0 0 0 0 0 
0 0 0 0 0 0 0 0 0 
0 0 0 0 0 0 0 0 0 
0 0 0 0 0 0 0 0 0 
0 0 0 0 0 0 0 0 0 
0 0 0 0 0 0 0 0 0 
0 0 0 0 0 0 0 0 0 
0 0 0 0 0 0 0 0 0 
0 0 0 0 0 0 0 0 0 
0 0 0 0 0 0 0 0 0 
0 0 0 0 0 0 0 0 0 
0 0 0 0 0 0 0 0 0 
0 0 0 0 0 0 0 0 0 
0 0 0 0 0 0 0 0 0 
0 0 0 0 0 0 0 0 0 
0 0 0 0 0 0 0 0 0 
0 0 0 0 0 0 0 0 0 
0 0 0 0 0 0 0 0 0 
0 0 0 0 0 0 0 0 0 
0 0 0 0 0 0 0 0 0 
0 0 0 0 0 0 0 0 0 
0 0 0 0 0 0 0 0 0 
0 0 0 0 0 0 0 0 0 
0 0 0 0 0 0 0 0 0 
0 0 0 0 0 0 0 0 0 
0 0 0 0 0 0 0 0 0 
0 0 0 0 0 0 0 0 0 
0 0 0 0 0 0 0 0 0 
0 0 0 0 0 0 0 0 0 
0 0 0 0 0 0 0 0 0 
0 0 0 0 0 0 0 0 0 
0 0 0 0 0 0 0 0 0 
0 0 0 0 0 0 0 0 0 
0 0 0 0 0 0 0 0 0 
0 0 0 0 0 0 0 0 0 
0 0 0 0 0 0 0 0 0 
0 0 0 0 0 0 0 0 0 
0 0 0 0 0 0 0 0 0 
0 0 0 0 0 0 0 0 0 
0 0 0 0 0 0 0 0 0 
0 0 0 0 0 0 0 0 0 
0 0 0 0 0 0 0 0 0 
0 0 0 0 0 0 0 0 0 
0 0 0 0 0 0 0 0 0 
0 0 0 0 0 0 0 0 0 
0 0 0 0 0 0 0 0 0 
0 0 0 0 0 0 0 0 0 
0 0 0 0 0 0 0 0 0 
0 0 0 0 0 0 0 0 0 
0 0 0 0 0 0 0 0 0 
0 0 0 0 0 0 0 0 0 
0 0 0 0 0 0 0 0 0 
0 0 0 0 0 0 0 0 0 
0 0 0 0 0 0 0 0 0 
0 0 0 0 0 0 0 0 0 
0 0 0 0 0 0 0 0 0 
0 0 0 0 0 0 0 0 0 
0 0 0 0 0 0 0 0 0 
0 0 0 0 0 0 0 0 0 
0 0 0 0 0 0 0 0 0 
0 0 0 0 0 0 0 0 0 
0 0 0 0 0 0 0 0 0 
0 0 0 0 0 0 0 0 0 
0 0 0 0 0 0 0 0 0 
0 0 0 0 0 0 0 0 0 
0 0 0 0 0 0 0 0 0 
0 0 0 0 0 0 0 0 0 
0 0 0 0 0 0 0 0 0 
0 0 0 0 0 0 0 0 0 
0 0 0 0 0 0 0 0 0 
0 0 0 0 0 0 0 0 0 
0 0 0 0 0 0 0 0 0 
0 0 0 0 0 0 0 0 0 
0 0 0 0 0 0 0 0 0 
0 0 0 0 0 0 0 0 0 
0 0 0 0 0 0 0 0 0 
0 0 0 0 0 0 0 0 0 
0 0 0 0 0 0 0 0 0 
0 0 0 0 0 0 0 0 0 
0 0 0 0 0 0 0 0 0 
0 0 0 0 0 0 0 0 0 
0 0 0 0 0 0 0 0 0 
0 0 0 0 0 0 0 0 0 
0 0 0 0 0 0 0 0 0 
0 0 0 0 0 0 0 0 0 
0 0 0 0 0 0 0 0 0 
0 0 0 0 0 0 0 0 0 
0 0 0 0 0 0 0 0 0 
0 0 0 0 0 0 0 0 0 
0 0 0 0 0 0 0 0 0 
0 0 0 0 0 0 0 0 0 
0 0 0 0 0 0 0 0 0 
0 0 0 0 0 0 0 0 0 
0 0 0 0 0 0 0 0 0 
0 0 0 0 0 0 0 0 0 
0 0 0 0 0 0 0 0 0 
0 0 0 0 0 0 0 0 0 
0 0 0 0 0 0 0 0 0 
0 0 0 0 0 0 0 0 0 
0 0 0 0 0 0 0 0 0 
0 0 0 0 0 0 0 0 0 
0 0 0 0 0 0 0 0 0 
0 0 0 0 0 0 0 0 0 
0 0 0 0 0 0 0 0 0 
0 0 0 0 0 0 0 0 0 
0 0 0 0 0 0 0 0 0 
0 0 0 0 0 0 0 0 0 
0 0 0 0 0 0 0 0 0 
0 0 0 0 0 0 0 0 0 
0 0 0 0 0 0 0 0 0 
0 0 0 0 0 0 0 0 0 
0 0 0 0 0 0 0 0 0 
0 0 0 0 0 0 0 0 0 
0 0 0 0 0 0 0 0 0 
0 0 0 0 0 0 0 0 0 
0 0 0 0 0 0 0 0 0 
0 0 0 0 0 0 0 0 0 
0 0 0 0 0 0 0 0 0 
0 0 0 0 0 0 0 0 0 
0 0 0 0 0 0 0 0 0 
0 0 0 0 0 0 0 0 0 
0 0 0 0 0 0 0 0 0 
0 0 0 0 0 0 0 0 0 
0 0 0 0 0 0 0 0 0 
0 0 0 0 0 0 0 0 0 
0 0 0 0 0 0 0 0 0 
0 0 0 0 0 0 0 0 0 
0 0 0 0 0 0 0 0 0 
0 0 0 0 0 0 0 0 0 
0 0 0 0 0 0 0 0 0 
0 0 0 0 0 0 0 0 0 
0 0 0 0 0 0 0 0 0 
0 0 0 0 0 0 0 0 0 
0 0 0 0 0 0 0 0 0 
0 0 0 0 0 0 0 0 0 
0 0 0 0 0 0 0 0 0 
0 0 0 0 0 0 0 0 0 
0 0 0 0 0 0 0 0 0 
0 0 0 0 0 0 0 0 0 
0 0 0 0 0 0 0 0 0 
0 0 0 0 0 0 0 0 0 
0 0 0 0 0 0 0 0 0 
0 0 0 0 0 0 0 0 0 
0 0 0 0 0 0 0 0 0 
0 0 0 0 0 0 0 0 0 
0 0 0 0 0 0 0 0 0 
0 0 0 0 0 0 0 0 0 
0 0 0 0 0 0 0 0 0 
0 0 0 0 0 0 0 0 0 
0 0 0 0 0 0 0 0 0 
0 0 0 0 0 0 0 0 0 
0 0 0 0 0 0 0 0 0 
0 0 0 0 0 0 0 0 0 
0 0 0 0 0 0 0 0 0 
0 0 0 0 0 0 0 0 0 
0 0 0 0 0 0 0 0 0 
0 0 0 0 0 0 0 0 0 
0 0 0 0 0 0 0 0 0 
0 0 0 0 0 0 0 0 0 
0 0 0 0 0 0 0 0 0 
0 0 0 0 0 0 0 0 0 
0 0 0 0 0 0 0 0 0 
0 0 0 0 0 0 0 0 0 
0 0 0 0 0 0 0 0 0 
0 0 0 0 0 0 0 0 0 
0 0 0 0 0 0 0 0 0 
0 0 0 
v 3 820 double
-0.0116921 0.00614438 4.82906e-13 -0.00390643 -0.00783086 -0.00062316 0.00370078 0.0100989 0.0125347 
-0.00615984 -0.0035523 -0.00208541 -0.00987771 0.00109106 0.00170732 -0.005106 -7.62899e-05 -0.000827166 
-0.00428433 0.000878854 0.000529988 -0.0218371 0.0178605 5.65771e-12 -0.0190657 0.0261465 1.39156e-08 
-0.0667368 0.0258314 0.000198061 -0.0387923 0.0157365 3.04353e-08 -0.0672478 -0.0346715 0.000139761 
0.0117067 0.0229701 0.00285855 0.000223533 0.0128031 6.78242e-05 0.138968 -0.0492316 0.0564273 
0.0132422 -0.0105081 0.0016213 -0.0606222 -0.00850884 -3.27569e-10 -0.0886056 -0.0449504 3.31913e-05 
-0.00477403 0.0136178 -0.00199237 -0.0326263 0.0082902 6.83197e-07 0.0214975 -0.0195578 0.00213635 
0.0110534 -0.00283427 3.5654e-13 -0.0422085 0.0369482 -0.0016273 0.0176665 0.0308399 -0.00116058 
-0.0307622 0.0129157 -0.00985938 -0.013642 0.00532705 8.72635e-10 -0.0294201 0.0209933 2.16954e-09 
-0.0203361 0.0171748 1.74004e-06 -0.0286044 0.0195134 -3.19627e-08 0.00859615 -0.118 0.00151504 
-0.0189054 0.00771237 -2.24858e-09 -0.0199349 0.00101414 -4.90297e-13 -0.005801 -0.00789253 -5.73179e-05 
0.00217084 0.00148828 5.63869e-07 -0.000697243 0.000444751 -0.0187103 0.00449023 0.00105512 -0.00126167 
0.00227211 0.00236223 -0.00971457 0.0549212 0.0200712 0.0117841 0.0328836 -0.0038232 4.20416e-09 
-0.0272467 -0.00641679 -0.00682423 -0.120719 -0.171303 0.0956479 -0.0409289 -0.00897787 -2.73526e-08 
-0.0265706 0.00107205 -2.03999e-11 0.000444834 -0.00382383 1.79516e-06 0.00728272 -0.000720177 -9.83799e-07 
-0.00688548 0.00309735 -8.35866e-09 -0.00695455 0.00274327 0.000161146 -0.00316163 0.00907292 2.70174e-05 
-0.00231818 0.00118259 -2.39122e-07 0.0343146 -0.0293255 -0.000979146 0.0120587 -0.0684904 6.82762e-05 
-0.00203216 -0.0614185 0.000225042 -0.0119805 0.0297262 4.04854e-14 -0.000121968 -0.00235107 -0.00357827 
0.00793993 -0.00471797 0.00163553 -0.112754 0.0470506 -0.000547225 -0.0490557 0.00166732 4.2743e-08 
-0.03115 0.101387 0.00118348 0.00149254 0.00704136 0.00412339 -0.00729145 -0.00405172 0.000680121 
-0.00632857 -0.0055583 0.000275943 -0.0051813 -0.00134845 -0.000819046 -0.0129524 0.00692894 5.2094e-06 
0.00726578 -0.086413 0.0721473 -0.0546464 -0.000369974 -0.0526001 0.0191303 0.000196909 -0.000195417 
-0.0305569 -0.0096323 -0.000351009 0.00968686 0.0606969 0.144685 -0.0236519 -0.0048819 -2.8133e-11 
-0.0068886 0.0394315 -0.0140822 0.0792164 0.0566354 1.22736e-05 -0.00319881 0.0175737 1.38478e-05 
-0.00917912 -0.00566191 1.75119e-08 -0.00358151 -0.00400678 6.54988e-07 -0.00490757 -0.000360558 -0.000688482 
-0.0153515 0.018817 -0.001145 0.00544075 0.0116489 -2.81028e-09 -0.0187592 0.0151866 1.00465e-05 
-0.02688 -0.0204301 -0.0184618 -0.0134631 0.0473195 0.0400544 0.081597 0.115766 -0.00575844 
0.0297783 0.0289044 0.00904273 0.00842171 -0.0120159 -3.90467e-06 -0.0108922 0.0158909 -4.01538e-08 
0.0406849 0.0135163 -0.00131997 0.0640418 0.0811357 -0.0285577 0.0538911 0.0248004 -0.00173761 
0.0833097 0.16749 -0.0462625 -0.0105097 -0.0346482 0.00347074 -0.00702899 -0.00243466 0.0081791 
0.00671355 0.0286965 0.00989412 -0.0184514 -0.0138791 2.71867e-05 0.000570641 -0.0105875 -0.00114134 
-7.4443e-05 -0.0238448 -0.018118 -0.00897918 0.0252614 -0.00131525 0.0970484 0.00730845 0.0344281 
0.0395523 0.00877602 1.77132e-08 0.00255045 -0.0175861 5.90075e-08 -0.00737734 -0.026351 -2.70935e-06 
-0.0068941 0.0729933 0.232131 -0.0131249 0.0370267 6.24341e-07 0.00788926 -0.019569 8.26044e-10 
0.00448894 -0.0206539 0.0102058 -0.00506143 -0.0143632 -0.00363555 0.00140749 -0.0010959 3.08587e-11 
0.000112808 -0.00270417 0.0011206 0.00150653 0.00949604 0.000166662 0.0156973 0.0252472 -0.000600837 
-0.0205272 -0.0681341 -1.40054e-10 -0.014685 -0.002516 3.38034e-06 -0.0173435 -0.0389862 -0.000354861 
-0.0146718 -0.0317911 3.56539e-13 0.0211866 -0.014928 0.00086593 -0.02982 0.0284703 -0.0681013 
0.00543202 -0.0470652 -0.0623595 -0.0405151 -0.0104685 0.03446 -0.0162167 -0.0435432 -0.000738089 
-0.0427023 -0.0696144 0.0206656 -0.0215317 0.0191015 0.0329594 -0.0467787 -0.0161832 -4.82114e-09 
-0.0613371 -0.00719123 0.0018711 -0.0417873 0.0178435 -0.0744459 -0.0635818 0.0838105 -2.45993e-07 
-0.0726329 -0.02264 0.0163342 -0.00888531 -0.0127859 0.00743511 0.0109387 -0.0220669 -0.00037085 
-0.0195973 -0.0433008 0.000533288 -0.0145481 -0.00442716 -0.00266464 -0.0104614 0.00175516 0.00021975 
-0.033364 0.0323893 -0.00456956 -0.00845471 0.0052852 2.60093e-09 0.0462763 -0.0789874 -0.154478 
0.016123 0.000802969 -0.00418884 -0.0761589 0.0266291 -0.0248372 0.0561278 -0.0436637 0.00113291 
-0.01491 -0.0945111 0.000229791 0.0337824 -0.0526177 0.000441165 0.00026787 0.0217603 -0.00100713 
-0.0470994 0.0190676 6.61729e-06 -0.0351885 0.0185402 -0.000741003 -0.0292717 0.0151675 -2.01265e-08 
-0.0795794 0.0346141 -0.000289644 -0.0391058 -0.0234878 0.004336 -0.0258894 -0.0325132 0.0449351 
0.0100903 -0.0241008 0.00259744 -0.00175614 0.00687929 -9.63673e-05 -0.0467931 0.00862416 0.0156909 
-0.0713123 -0.0340993 -2.85672e-10 -0.0788493 0.0034616 -0.000173727 -0.0262367 -0.056879 0.0254524 
-0.0512523 -0.0152768 0.0650085 -0.0158945 -0.067906 6.95067e-07 -0.00528987 0.0128085 8.92138e-08 
-0.00556266 -0.0163206 -1.09352e-05 -0.0646952 0.00164285 2.99024e-08 -0.0368606 -0.0162385 -0.00139739 
-0.00491994 0.0490067 -0.000525917 -0.132145 0.0591976 -0.00019089 0.0200261 0.172096 -0.00266496 
-0.0686256 -0.0526628 -0.000108978 0.00553967 -0.0638576 0.00379266 -0.00279687 -0.00694505 0.00127989 
-0.00233436 -0.04782 -1.29922e-05 -0.00439786 0.00506769 0.00088901 0.0134517 -0.0500739 1.63994e-05 
-0.00034777 -0.0179378 -3.72393e-07 -0.02348 -0.0252993 -1.08492e-07 0.0326456 0.0153252 0.0270589 
0.112475 -0.0953221 0.0557915 -0.00367633 0.0103116 -1.05344e-10 -0.0992972 0.00390847 -0.00059631 
-0.0211759 -0.00498149 -3.00238e-09 -0.0400805 0.0185377 -3.57828e-05 -0.0231871 -0.00493195 0.000649626 
-0.0583507 0.0198689 0.044921 -0.0124723 -0.0561372 0.0242985 -0.0213524 -0.0401324 -0.0012251 
0.00328714 -0.0159248 -2.27263e-14 -0.0019006 -0.00111402 -6.54834e-13 -0.0358774 -0.107857 0.0545086 
-0.0539074 -0.0427901 -0.0173215 0.00851332 -0.0346784 0.00018228 -0.0477417 -0.0466418 -1.34387e-06 
-0.00632573 -0.0561044 7.5507e-05 -0.0812458 -0.0351465 0.0929817 0.0283198 -0.032958 0.0177677 
0.0044151 0.0137786 -2.10279e-08 0.0327405 0.0272669 1.02341e-13 0.0244143 0.0735719 0.000779352 
-0.018319 0.0195183 0.0173134 0.0462704 0.0207793 1.62793e-13 -0.0166123 0.0843079 0.000423507 
-0.0599821 -0.0892786 0.00428409 -0.00595024 -0.0572245 -0.046125 -0.00141105 -0.0514593 0.0406139 
-0.00615379 0.000496614 0.00872801 0.00709938 -0.0444346 -1.13924e-07 -0.00298314 -0.0268391 0.000955556 
0.0134014 -0.0115794 -1.33808e-05 -0.0210733 -0.0435146 -7.38468e-07 -0.00315116 -0.0770427 0.00181909 
-0.0257656 0.0438952 -1.06619e-12 -0.0616408 0.00627203 0.121823 0.030329 0.0767519 -0.00215037 
-0.0792175 0.171866 -4.35384e-10 0.012999 -0.00166987 -8.89342e-14 -0.0502977 -0.145158 0.145883 
0.0222153 -0.0170625 0.00014156 0.0349466 -0.051782 0.00590781 -0.0043588 -0.0108098 -0.000193363 
0.00526858 -0.0479312 1.60784e-05 0.0110927 -0.0290658 1.63849e-05 0.00495497 -0.0318391 -0.00191393 
-0.0188715 -0.013657 -0.00279868 -0.0334038 -0.0392117 0.000967137 -0.0043142 -0.0333853 9.26918e-05 
0.0042468 -0.0338854 -1.09388e-06 -0.0297428 -0.0534918 -2.62892e-06 0.0186274 -0.094871 0.0180832 
0.043237 -0.0867056 0.00820153 -0.0113616 -0.0321276 0.016698 0.0272232 -0.116564 1.23792e-12 
0.0342095 0.0676244 0.000411184 -0.00516217 0.00713986 0.000258206 0.00751908 0.0464583 -0.000326658 
0.00836189 -0.00657572 -1.81728e-10 -0.0154477 -0.0135853 -0.0017246 0.00200745 -0.0334082 -0.00113179 
-0.0104755 -0.00654351 0.00577176 -0.0060308 -0.0181425 -0.0018779 -0.00795874 -0.0354527 -0.00522299 
-0.003049 -0.0111846 -0.000536723 -0.0338314 -0.129405 0.019506 -0.157073 0.0331814 0.00687938 
0.0224726 -0.0340393 -2.22084e-08 -0.00209045 -0.038252 -2.37453e-06 0.0332652 0.0457349 2.75107e-05 
0.00295385 -0.00171554 0.00241732 0.026572 -0.0523654 3.3511e-08 0.0404995 0.0670766 0.000176508 
-0.00152604 -0.00435818 -2.38879e-06 -1.56198e-05 -0.0222242 1.87064e-06 -0.00184777 -0.00436413 0.000136582 
-0.0115571 -0.0112173 0.00275809 0.00849306 -0.0247055 -0.00365644 0.00611044 -0.00745182 0.000798371 
-0.0380869 0.029484 0.00746194 -0.0342162 0.000121151 0.0141164 0.0028569 -0.00350261 -1.94012e-10 
0.00231134 -0.00515875 -6.51728e-11 0.0010556 -0.00103766 3.8146e-11 0.00767649 0.0325247 0.000828318 
0.0238048 -0.0534119 0.000212504 -0.118757 0.118165 -0.10143 0.00421626 -0.0418453 -0.0304773 
0.0300666 0.0282747 -0.0433423 -0.0111707 -0.016156 -1.00126e-05 -0.00612874 -0.0108071 -2.97039e-06 
-0.0065874 -0.00285366 0.00916343 -0.0323199 0.0118471 0.000873628 -0.0150153 0.0230844 -0.00337961 
-0.0150416 0.00359346 -1.29528e-05 -0.0466693 0.0167456 2.86947e-13 0.165822 0.0380011 0.0205178 
0.209516 0.0114168 1.75511e-07 0.126219 0.169893 1.2044e-05 0.093168 -0.0916875 -0.0438755 
-0.0367525 0.0755465 -1.73374e-05 -0.0233223 -0.0115521 1.87241e-05 -0.0303813 0.0233335 0.010106 
0.06101 -0.034335 0.00686849 -0.00359581 -0.00349931 0.00120996 0.006999 0.0128312 -0.00171335 
-0.0139723 0.0130654 4.74275e-06 0.0633871 -0.0209759 -0.00534272 -0.00596646 0.0772628 -5.69571e-05 
-0.117236 0.121158 0.0790658 0.169896 0.134376 0.154211 0.0121269 -0.00879007 0.00996664 
-0.0342542 -0.0917555 9.82267e-05 -0.0482323 -0.0508691 0.0783485 -0.0174275 -0.00776563 0.000294655 
0.00202128 0.00540977 0.00139772 0.00948146 0.00536085 -0.000691119 0.00336254 -0.00357425 0.000208432 
-0.0590224 -0.0616663 0.0126284 -0.0644659 0.0385709 -0.0360175 0.0814006 0.00750668 0.0560433 