# vtk DataFile Version 4.0
Generated by LIGGGHTS
ASCII
DATASET POLYDATA
POINTS 497 float
-0.014044 -0.0476087 0.0811205 -0.0101802 -0.0476214 0.0811205 0.000824822 -0.0494793 0.0811205 
0.00757105 -0.0487989 0.0812374 0.0125173 -0.0480295 0.0811149 -0.0178801 -0.0459975 0.0811157 
-0.00972854 -0.0441221 0.0811205 -0.00386303 -0.0441818 0.0811238 -0.000247619 -0.0460466 0.0811445 
0.00300225 -0.0463311 0.0815774 0.00724096 -0.0446351 0.0811823 0.00961402 -0.046475 0.0811351 
-0.0238061 -0.0426528 0.0811205 -0.0173436 -0.0407969 0.0811205 -0.0157625 -0.0438009 0.0811566 
0.00157034 -0.041419 0.0821183 0.00730439 -0.0413441 0.0811205 0.0118546 -0.0412516 0.0811204 
0.0176142 -0.041677 0.0811205 -0.0310653 -0.0382962 0.0819094 -0.0269178 -0.0400748 0.0821183 
0.031068 -0.037409 0.0821183 -0.0305999 -0.0336899 0.0811205 -0.0181314 -0.0365099 0.0827527 
-0.00895843 -0.0344972 0.0811186 0.0003677 -0.0354355 0.0812202 0.00965765 -0.0366275 0.0811205 
0.0183635 -0.0353786 0.0811205 0.0282859 -0.0346613 0.0811205 0.0330374 -0.0340535 0.0811184 
-0.0347078 -0.0299315 0.0811205 -0.0275062 -0.0310991 0.0812045 -0.0185613 -0.0312666 0.0821183 
-0.000723484 -0.0324562 0.0811205 0.028598 -0.0316919 0.0814397 0.0336505 -0.0302032 0.0811205 
-0.0138567 -0.0270966 0.0811646 0.0146609 -0.0268039 0.0811205 0.0352528 -0.0273799 0.0811913 
0.0382459 -0.0296687 0.0811203 0.040971 -0.0274595 0.0811205 -0.0394851 -0.0232117 0.0811205 
-0.0328007 -0.025444 0.0821378 -0.00826419 -0.0238225 0.0811237 0.0335411 -0.0233463 0.0821179 
0.0383869 -0.0245717 0.0821182 -0.0450311 -0.0197152 0.0811205 0.00196578 -0.0231589 0.0823216 
0.0358294 -0.0199024 0.0811608 0.0418747 -0.0221596 0.0811319 0.0435959 -0.0196275 0.0811205 
-0.0280362 -0.0171403 0.0821961 -0.0203824 -0.0191816 0.0811203 -0.014534 -0.0190351 0.0823349 
-0.0105229 -0.0157829 0.0821183 -0.00664187 -0.0159204 0.0811205 -0.00284733 -0.0176727 0.0821717 
0.00358376 -0.0156646 0.0810902 0.0155663 -0.0193495 0.0821181 0.038285 -0.0181 0.0812129 
-0.046721 -0.0132593 0.0821183 -0.0420624 -0.0153709 0.0821183 -0.0321041 -0.014251 0.0811198 
-0.028693 -0.0121557 0.0816075 -0.0244486 -0.0121249 0.0823816 -0.0142437 -0.014298 0.0811205 
0.00794301 -0.013881 0.0823987 0.0194076 -0.012192 0.0811205 0.0387526 -0.0135385 0.081118 
0.0419947 -0.0156858 0.0821223 0.0455342 -0.012922 0.0811205 -0.0415462 -0.00927754 0.0821203 
-0.031627 -0.0108892 0.0812552 -0.0213064 -0.0120874 0.0811205 -0.00258957 -0.0121111 0.0821188 
0.000899108 -0.00880999 0.0812967 0.0114189 -0.0118854 0.0811852 0.0362817 -0.0109922 0.0811205 
0.0394489 -0.010603 0.0811164 0.042474 -0.0110709 0.081122 0.048215 -0.0114544 0.0811215 
-0.0472452 -0.00788028 0.0821183 -0.0297775 -0.00657717 0.0812421 -0.0116611 -0.00814422 0.082132 
0.00679015 -0.00664316 0.082104 0.0247272 -0.00686066 0.0821183 0.0288604 -0.006736 0.0811205 
0.0358641 -0.00599638 0.0826099 0.0405657 -0.00762527 0.0811464 -0.0421913 -0.00547492 0.0811219 
-0.0114693 -0.00415231 0.0822274 -0.00140933 -0.00522612 0.0814817 0.0395453 -0.00170458 0.0813065 
-0.0431857 -0.00145817 0.0811205 -0.0389222 0.00156793 0.0811209 -0.0320929 3.04678e-05 0.0811205 
-0.0253607 0.000640928 0.0821367 0.00768511 -0.000828782 0.0821434 0.0214816 -0.00116771 0.0811205 
-0.0484431 0.00298322 0.0811205 -0.0263168 0.00366765 0.0811205 -0.014379 0.00429215 0.0818796 
-0.0104905 0.0034297 0.0811208 -0.00749611 0.00302227 0.0811239 -0.0038721 0.00335328 0.08112 
0.00432882 0.00431155 0.0821175 0.00847903 0.00304274 0.0811206 0.0114263 0.00197891 0.0811165 
0.0182288 0.00288711 0.0821183 0.026261 0.00321882 0.0821185 0.0459591 0.00350098 0.0821183 
-0.0444355 0.00750378 0.0817294 -0.038848 0.00532538 0.0811205 -0.0286638 0.00716725 0.0811205 
-0.0186227 0.00717016 0.0811205 -0.00679986 0.00712834 0.082177 0.000271241 0.00552565 0.0816809 
0.0122891 0.00759528 0.0821408 0.0219613 0.00720677 0.0821181 0.028081 0.00729716 0.0811123 
-0.0475391 0.0101966 0.0821147 -0.0434728 0.0108841 0.0814775 -0.0117125 0.010732 0.0821179 
-0.00382902 0.00959919 0.0811216 -0.000176056 0.00983531 0.0824542 0.0477247 0.00978166 0.082128 
-0.046066 0.0149726 0.082125 -0.0417007 0.0136723 0.0811205 -0.03782 0.0145544 0.0821024 
-0.0185117 0.0153706 0.0821175 -0.0155155 0.0126761 0.0811205 -0.0126575 0.0144909 0.0811205 
-0.00362488 0.013477 0.0821202 0.0192522 0.0123286 0.0812863 0.023331 0.0126772 0.0811204 
-0.0328623 0.0163641 0.0821183 0.010654 0.0161667 0.0820973 0.0271009 0.0178336 0.0814765 
-0.0429802 0.0212111 0.0821856 -0.03789 0.020619 0.0811205 -0.0171685 0.0202343 0.0811204 
0.0271065 0.0223283 0.0811205 0.0368759 0.0198171 0.0821184 -0.0387863 0.024496 0.0821183 
0.00834804 0.0260985 0.0821183 0.0268504 0.0255285 0.0811205 -0.0385286 0.0295 0.0821179 
-0.0339566 0.0267152 0.0821197 -0.0286761 0.0265217 0.0811205 -0.0224753 0.0291561 0.0821184 
-0.00757475 0.0269363 0.0821302 -0.00162124 0.0298084 0.081777 0.0275079 0.0294749 0.0811205 
0.0316512 0.0286627 0.0811205 0.0404402 0.0276303 0.0811205 -0.036981 0.0330656 0.0811205 
-0.0348007 0.030501 0.08112 -0.0247692 0.0324921 0.081122 0.00393925 0.0303508 0.0811205 
0.0112335 0.0330193 0.0811205 0.0244661 0.0305963 0.0811206 0.0307846 0.031602 0.0811205 
0.0348005 0.0310465 0.0821183 0.0391182 0.0305095 0.0811205 -0.0323232 0.033456 0.0821324 
-0.0285918 0.0345452 0.0811294 -0.0251835 0.0363949 0.0822838 0.00139779 0.0359187 0.0820198 
0.0154144 0.0333984 0.081321 0.0282986 0.0351508 0.0811205 0.0322661 0.0342205 0.0811204 
-0.0301564 0.0388143 0.0811205 -0.0265954 0.0399352 0.0811115 0.00576053 0.0390263 0.0810794 
0.00906267 0.0378073 0.0811205 0.0158723 0.0383387 0.0823401 0.021439 0.0399704 0.0821188 
0.0258728 0.0383534 0.0811205 0.0324568 0.0375843 0.0811205 -0.0194523 0.043448 0.0821197 
0.00657439 0.0425339 0.0811205 0.0148026 0.0434937 0.0821185 0.0218664 0.0438236 0.0811205 
-0.0078092 0.0463944 0.0815633 -0.00271373 0.0466905 0.0813074 0.00558762 0.0466474 0.082118 
0.0113148 0.0472871 0.0821183 -0.00464575 0.0493009 0.0811205 0.00300934 0.0495525 0.0811205 
-0.00599651 -0.047452 0.0822365 0.00280923 -0.0475866 0.0851064 -0.0147535 -0.0452732 0.0838073 
0.0121696 -0.0468974 0.0838289 -0.00648802 -0.0428983 0.0825798 0.0116625 -0.0385733 0.0825768 
-0.0293704 -0.0339839 0.084944 0.00227542 -0.0341369 0.0831462 0.0181774 -0.0324465 0.0845242 
0.0358652 -0.0327099 0.0836012 0.0391624 -0.0303669 0.0838892 -0.0265798 -0.0297623 0.0841375 
-0.0228705 -0.0279163 0.0843752 0.021451 -0.0268521 0.082483 -0.0168212 -0.0262199 0.0841696 
-0.0134508 -0.023649 0.0845566 -0.00322867 -0.024687 0.0847294 0.0281317 -0.0253873 0.0829319 
-0.0413834 -0.0204329 0.0825574 -0.00942286 -0.0221979 0.0835322 -0.0351299 -0.0171885 0.0828051 
0.0131199 -0.0175259 0.0847859 0.0341277 -0.0158171 0.0826253 0.0395443 -0.0186019 0.0842679 
0.0283576 -0.0131654 0.0824599 -0.0270162 -0.0121452 0.0864607 -0.0204187 -0.00891409 0.0845528 
-0.0304042 -0.00662152 0.0859684 0.0112104 -0.0074442 0.0856312 -0.0411469 -0.0018775 0.0832783 
0.0164489 -0.00414888 0.0862024 0.026447 -0.00188923 0.0837846 0.0429437 -0.0044561 0.0820454 
-0.0367458 -0.000714269 0.0846836 -0.0123971 -0.000168737 0.0828746 -0.00309695 -0.00137909 0.0809681 
0.00267626 -0.000599759 0.0831987 0.0308721 -0.00177813 0.0836117 0.0336458 0.00113664 0.0826264 
0.0484833 0.00157037 0.0848884 -0.00881535 0.0024938 0.085781 -0.00149878 0.00292836 0.0829029 
0.00732783 0.00274203 0.0844782 0.0194531 0.00574683 0.0848753 0.0349184 0.0061206 0.0836081 
-0.0351712 0.0114849 0.0820892 -0.0168692 0.0107327 0.0844542 -0.00528463 0.0113993 0.0851106 
0.0250693 0.0116132 0.0833208 0.0311374 0.0120769 0.0845785 -0.0476693 0.0139208 0.0856332 
0.00667562 0.0119314 0.0849765 0.0179638 0.0122694 0.0847376 -0.041577 0.0158614 0.0838123 
-0.0233721 0.0166572 0.0840975 -0.0159024 0.0187481 0.084707 -0.00345669 0.0178642 0.0843479 
0.013942 0.0176918 0.0855672 0.0336604 0.0176775 0.0848053 -0.0324275 0.0219158 0.0853052 
-0.021867 0.0229276 0.082518 0.00668042 0.0212466 0.0845136 0.0140703 0.0260061 0.085854 
-0.0293104 0.0367627 0.0837987 0.0227373 0.0342894 0.0834935 0.0308212 0.0342513 0.0852857 
-0.0148289 0.0391301 0.0836289 -0.0277723 0.0411426 0.0835816 -0.0137165 0.0464103 0.0825498 
0.0186216 0.0449293 0.0850345 0.00359437 0.0485382 0.0850233 -0.00120066 -0.0481935 0.0863019 
-0.0130213 -0.0465391 0.0874081 -0.00507428 -0.0359742 0.0867808 0.0259614 -0.0369054 0.0873236 
-0.00672717 -0.0265661 0.0859833 -0.000815764 -0.0209423 0.0877891 -0.00416652 -0.0166062 0.0859843 
0.00908121 -0.0144353 0.0877163 -0.0464869 -0.0114784 0.0885546 -0.0349352 -0.0111811 0.0863367 
0.0188051 -0.0106529 0.0865042 -0.0369185 -0.00754122 0.0870875 -0.0344081 -0.00434174 0.0861604 
-0.0161852 -0.00331953 0.0856016 0.0232679 -0.00383425 0.0862779 0.0371537 0.000911557 0.0855287 
-0.0260218 0.00325081 0.0863206 0.00479204 0.00474489 0.0861749 0.0373288 0.004886 0.0869457 
0.0446698 0.00230327 0.0872496 -0.0100715 0.00763186 0.0860202 0.0165272 0.00774527 0.0870155 
-0.0442992 0.0108498 0.0859431 -0.00721107 0.0102486 0.0872171 -0.0167574 0.0140279 0.0888379 
-0.00603661 0.0148489 0.0892226 0.0247417 0.0153298 0.0894267 0.0187564 0.0161664 0.0878536 
0.0446505 0.0159391 0.0866902 -0.0414553 0.0229959 0.086717 0.00168378 0.025565 0.0863835 
0.0102696 0.033597 0.0887165 0.0131309 0.0370371 0.0865976 0.0161329 0.0338038 0.0874977 
0.00705591 0.0399362 0.0874845 0.0202383 0.0374044 0.086247 -0.0173207 0.0407044 0.0887971 
-0.000305222 -0.0417714 0.0902579 -0.0104001 -0.0379508 0.0897492 -0.0165098 -0.0312045 0.0900112 
-0.00735589 -0.0285773 0.0898987 -0.00330209 -0.0270504 0.0907855 0.0406352 -0.0274009 0.0898608 
-0.037247 -0.0235961 0.0866859 0.00172038 -0.0256021 0.0910283 0.0444797 -0.0204424 0.0918241 
-0.044081 -0.0141321 0.0923626 0.00427163 -0.0129903 0.092659 0.0307308 -0.0139734 0.0856743 
0.0324679 -0.0107189 0.0922198 0.0272854 -0.00422759 0.0898239 -0.043253 7.76852e-06 0.0904864 
-0.0271281 0.000814539 0.0930457 0.0382376 0.00362519 0.0895532 -0.0341341 0.0119744 0.0907093 
-0.0112253 0.0131251 0.0906631 -0.017664 0.0242436 0.0908927 0.0238456 0.0232618 0.0911482 
-0.0175878 0.0292967 0.0904705 0.0302279 0.0289943 0.0898135 -0.021199 0.0320455 0.0927836 
0.0209333 0.0435703 0.0902692 -0.00530406 0.0439764 0.0903116 -0.0145796 -0.0445144 0.0948404 
0.0110457 -0.0469683 0.0945079 -0.0224175 -0.0417786 0.0936588 0.0108427 -0.034997 0.0957018 
0.0128821 -0.0299539 0.0937382 -0.033881 -0.0120427 0.093666 -0.027392 -0.0151959 0.0957042 
-0.0228464 -0.00559641 0.0911851 -0.0483601 0.00199673 0.0962238 0.0392085 0.00744099 0.0906172 
0.0074274 0.0100411 0.0908589 -0.0127028 0.0141593 0.0954447 0.018346 0.0122867 0.0936325 
-0.0146833 0.0319768 0.090758 -0.00730721 0.0323595 0.0948708 0.00835474 0.0388498 0.0940019 
0.00511238 0.0480581 0.0947718 -0.0122045 -0.0464142 0.0978398 -0.0317376 -0.0343356 0.0985057 
0.0133705 -0.0223305 0.0935802 0.0143124 -0.0130284 0.0988237 -0.0246704 -0.00817868 0.0970542 
0.0318606 -0.00588886 0.0964417 -0.0321856 -0.00124503 0.095867 -0.00389534 0.0123193 0.0966012 
-0.00897217 0.040546 0.0973298 0.00330523 -0.0250089 0.0978053 0.00764154 0.00455319 0.0962022 
-0.0234259 0.0386462 0.102241 0.00296838 0.00822408 0.100763 0.030464 0.0068227 0.100266 
-0.0323063 0.0167435 0.105647 0.00227137 -0.0336236 0.107802 -0.0346844 -0.00777923 0.112578 
-0.0235745 -0.00730154 0.109885 -0.015378 0.00127119 0.108312 0.00611988 -0.0222591 0.111839 
0.00783772 -0.0166741 0.111053 0.00281098 -0.0339228 0.115846 0.0399978 -0.00278466 0.11487 
-0.0218177 0.0172583 0.114867 -0.0220288 -0.0361214 0.118565 0.0203442 -0.0285468 0.117641 
-0.0263638 0.011884 0.117717 0.0123094 0.0175963 0.118725 -0.00399598 0.0224229 0.11893 
-0.0444439 -0.00601372 0.122032 -0.00621866 0.0299949 0.121877 -0.0283224 -0.000512593 0.127109 
0.0373051 0.00420623 0.127199 0.0121843 -0.019531 0.128715 0.0213853 0.0055008 0.12925 
-0.00499611 0.0158862 0.128052 -0.00228932 0.0314684 0.129363 0.0248347 -0.0165705 0.132774 
0.0319623 -0.0126898 0.132951 -0.0420496 -0.00748094 0.136957 0.0378325 -0.00278681 0.137321 
-0.0126044 0.0280241 0.139688 -0.0192166 0.0328101 0.13655 0.0101063 -0.0287233 0.1401 
0.0026896 -0.0431779 0.144739 0.00244787 -0.0184176 0.144893 0.0301274 0.0119527 0.143574 
-0.0186207 0.015316 0.142671 -0.0297208 0.0321235 0.143147 0.0151321 -0.0388474 0.148216 
0.0324133 -0.0218036 0.14728 -0.0239733 0.00659914 0.147559 0.0120071 -0.0184136 0.15199 
-0.0192635 0.00970267 0.15109 -0.0207231 0.0361573 0.150907 0.00446813 0.0346603 0.149937 
-0.0188877 0.0132342 0.159753 0.0187888 -0.036103 0.162167 0.00910245 -0.0264534 0.164376 
0.00509804 -0.0122439 0.164375 -0.0346659 0.0259845 0.163584 0.0226004 0.0296669 0.164926 
-0.0306557 0.0307859 0.165231 -0.00675232 -0.0341908 0.169299 0.0397906 -0.00569887 0.169454 
-0.0131665 -0.00041517 0.170475 -0.00986964 0.0234333 0.170286 0.00514247 -0.00729011 0.173774 
0.0263239 0.0114826 0.171236 -0.010093 0.0189857 0.171224 0.0339171 0.00678579 0.174109 
0.0383596 0.0195173 0.174815 -0.0159786 0.0418657 0.177539 -0.0098011 -0.0234588 0.178325 
0.0115072 0.0275582 0.180686 0.0124456 0.0361137 0.179532 0.0106157 -0.0110129 0.18562 
1.88277e-05 0.0106236 0.187568 -0.0220649 0.0240844 0.186785 -0.0226352 0.037476 0.187128 
-0.0164499 -0.0316348 0.191543 -0.0307885 -0.0246845 0.189543 -0.00686511 -0.0244712 0.189125 
0.00181328 0.0012361 0.18979 0.00346831 0.0047695 0.192317 -0.0100523 0.0290413 0.195108 
0.0154945 -0.0382361 0.197856 -0.0392343 -0.0206563 0.197341 0.00328139 -0.00288698 0.195612 
0.0212559 0.0219542 0.197433 0.00910765 -0.0437569 0.199853 0.0201954 -0.0338501 0.200827 
-0.0161912 0.0404917 0.200772 0.0235324 -0.0374549 0.206053 0.011803 0.00373837 0.204354 
0.00518514 0.0301068 0.20578 0.030057 0.0264087 0.209145 0.00240024 0.0412985 0.207079 
0.00708918 -0.0103582 0.210066 0.00126463 0.00207793 0.21015 -0.000263412 0.0194023 0.210671 
0.00775486 0.0350729 0.211564 -0.0130512 -0.0152917 0.216089 0.015905 0.00472444 0.216468 
-0.0230534 0.0139998 0.213876 -0.00725241 0.0350264 0.214104 -0.023737 -0.0372682 0.218967 
0.0325846 -0.00718816 0.219115 -0.00663488 0.042427 0.218192 0.0323414 -0.025442 0.223702 
-0.00296953 0.00249339 0.221185 -0.0154989 0.0113036 0.221852 -0.0260806 0.0140553 0.221241 
-0.0113132 0.0360437 0.222871 -0.0230999 -0.0159577 0.224872 0.0322522 0.0228406 0.225966 
-0.0158361 0.0319721 0.227219 0.012147 0.0366448 0.226377 -0.00125423 0.000642836 0.229742 
-0.0349684 0.0269124 0.230116 0.021277 -0.0104309 0.233971 0.0365738 -0.00545749 0.231409 
0.0301005 0.00778085 0.231487 -0.0100984 0.0159517 0.234406 0.0176444 0.0282352 0.233789 
0.00281054 0.0354158 0.233844 -0.0320416 -0.00737402 0.235994 -0.0338811 0.024557 0.237872 
0.0316653 -0.0183535 0.238502 -0.0330998 -0.0147296 0.238452 0.0216143 0.00511649 0.241664 
0.00721961 0.0212247 0.238178 0.00239577 -0.0253613 0.244866 -0.00916434 0.0174735 0.245271 
-0.0206311 0.0362053 0.242718 -0.00519841 -0.0422854 0.245388 0.0324545 -0.0131613 0.248675 
-0.00166866 -0.0104484 0.247024 0.00214622 0.0177652 0.247398 0.0102732 0.0209266 0.24655 
-0.020166 0.028385 0.247206 -0.00129972 0.040174 0.245666 0.0236946 -0.0220235 0.251314 
0.0254918 -0.00913292 0.249013 0.0267094 0.0344695 0.249755 0.00323573 -0.032034 0.254419 
-0.00255536 -0.0236362 0.252967 -0.0410739 -0.015035 0.255603 0.0209373 -0.0154221 0.25544 
0.033381 -0.00824442 0.252809 0.0041374 0.0280631 0.252687 0.0177829 -0.037652 0.256549 
0.00389324 -0.0267974 0.255967 0.0343148 -0.0230812 0.258353 0.0341926 -0.00440564 0.258163 
0.0388148 0.000921297 0.256852 -0.000705377 0.0157954 0.256257 
VERTICES 497 994
1 0 
1 1 
1 2 
1 3 
1 4 
1 5 
1 6 
1 7 
1 8 
1 9 
1 10 
1 11 
1 12 
1 13 
1 14 
1 15 
1 16 
1 17 
1 18 
1 19 
1 20 
1 21 
1 22 
1 23 
1 24 
1 25 
1 26 
1 27 
1 28 
1 29 
1 30 
1 31 
1 32 
1 33 
1 34 
1 35 
1 36 
1 37 
1 38 
1 39 
1 40 
1 41 
1 42 
1 43 
1 44 
1 45 
1 46 
1 47 
1 48 
1 49 
1 50 
1 51 
1 52 
1 53 
1 54 
1 55 
1 56 
1 57 
1 58 
1 59 
1 60 
1 61 
1 62 
1 63 
1 64 
1 65 
1 66 
1 67 
1 68 
1 69 
1 70 
1 71 
1 72 
1 73 
1 74 
1 75 
1 76 
1 77 
1 78 
1 79 
1 80 
1 81 
1 82 
1 83 
1 84 
1 85 
1 86 
1 87 
1 88 
1 89 
1 90 
1 91 
1 92 
1 93 
1 94 
1 95 
1 96 
1 97 
1 98 
1 99 
1 100 
1 101 
1 102 
1 103 
1 104 
1 105 
1 106 
1 107 
1 108 
1 109 
1 110 
1 111 
1 112 
1 113 
1 114 
1 115 
1 116 
1 117 
1 118 
1 119 
1 120 
1 121 
1 122 
1 123 
1 124 
1 125 
1 126 
1 127 
1 128 
1 129 
1 130 
1 131 
1 132 
1 133 
1 134 
1 135 
1 136 
1 137 
1 138 
1 139 
1 140 
1 141 
1 142 
1 143 
1 144 
1 145 
1 146 
1 147 
1 148 
1 149 
1 150 
1 151 
1 152 
1 153 
1 154 
1 155 
1 156 
1 157 
1 158 
1 159 
1 160 
1 161 
1 162 
1 163 
1 164 
1 165 
1 166 
1 167 
1 168 
1 169 
1 170 
1 171 
1 172 
1 173 
1 174 
1 175 
1 176 
1 177 
1 178 
1 179 
1 180 
1 181 
1 182 
1 183 
1 184 
1 185 
1 186 
1 187 
1 188 
1 189 
1 190 
1 191 
1 192 
1 193 
1 194 
1 195 
1 196 
1 197 
1 198 
1 199 
1 200 
1 201 
1 202 
1 203 
1 204 
1 205 
1 206 
1 207 
1 208 
1 209 
1 210 
1 211 
1 212 
1 213 
1 214 
1 215 
1 216 
1 217 
1 218 
1 219 
1 220 
1 221 
1 222 
1 223 
1 224 
1 225 
1 226 
1 227 
1 228 
1 229 
1 230 
1 231 
1 232 
1 233 
1 234 
1 235 
1 236 
1 237 
1 238 
1 239 
1 240 
1 241 
1 242 
1 243 
1 244 
1 245 
1 246 
1 247 
1 248 
1 249 
1 250 
1 251 
1 252 
1 253 
1 254 
1 255 
1 256 
1 257 
1 258 
1 259 
1 260 
1 261 
1 262 
1 263 
1 264 
1 265 
1 266 
1 267 
1 268 
1 269 
1 270 
1 271 
1 272 
1 273 
1 274 
1 275 
1 276 
1 277 
1 278 
1 279 
1 280 
1 281 
1 282 
1 283 
1 284 
1 285 
1 286 
1 287 
1 288 
1 289 
1 290 
1 291 
1 292 
1 293 
1 294 
1 295 
1 296 
1 297 
1 298 
1 299 
1 300 
1 301 
1 302 
1 303 
1 304 
1 305 
1 306 
1 307 
1 308 
1 309 
1 310 
1 311 
1 312 
1 313 
1 314 
1 315 
1 316 
1 317 
1 318 
1 319 
1 320 
1 321 
1 322 
1 323 
1 324 
1 325 
1 326 
1 327 
1 328 
1 329 
1 330 
1 331 
1 332 
1 333 
1 334 
1 335 
1 336 
1 337 
1 338 
1 339 
1 340 
1 341 
1 342 
1 343 
1 344 
1 345 
1 346 
1 347 
1 348 
1 349 
1 350 
1 351 
1 352 
1 353 
1 354 
1 355 
1 356 
1 357 
1 358 
1 359 
1 360 
1 361 
1 362 
1 363 
1 364 
1 365 
1 366 
1 367 
1 368 
1 369 
1 370 
1 371 
1 372 
1 373 
1 374 
1 375 
1 376 
1 377 
1 378 
1 379 
1 380 
1 381 
1 382 
1 383 
1 384 
1 385 
1 386 
1 387 
1 388 
1 389 
1 390 
1 391 
1 392 
1 393 
1 394 
1 395 
1 396 
1 397 
1 398 
1 399 
1 400 
1 401 
1 402 
1 403 
1 404 
1 405 
1 406 
1 407 
1 408 
1 409 
1 410 
1 411 
1 412 
1 413 
1 414 
1 415 
1 416 
1 417 
1 418 
1 419 
1 420 
1 421 
1 422 
1 423 
1 424 
1 425 
1 426 
1 427 
1 428 
1 429 
1 430 
1 431 
1 432 
1 433 
1 434 
1 435 
1 436 
1 437 
1 438 
1 439 
1 440 
1 441 
1 442 
1 443 
1 444 
1 445 
1 446 
1 447 
1 448 
1 449 
1 450 
1 451 
1 452 
1 453 
1 454 
1 455 
1 456 
1 457 
1 458 
1 459 
1 460 
1 461 
1 462 
1 463 
1 464 
1 465 
1 466 
1 467 
1 468 
1 469 
1 470 
1 471 
1 472 
1 473 
1 474 
1 475 
1 476 
1 477 
1 478 
1 479 
1 480 
1 481 
1 482 
1 483 
1 484 
1 485 
1 486 
1 487 
1 488 
1 489 
1 490 
1 491 
1 492 
1 493 
1 494 
1 495 
1 496 

POINT_DATA 497
FIELD FieldData 7
id 1 497 int
199 32 90 240 18 262 96 59 70 
207 87 46 76 6 250 79 213 95 
19 178 2 92 173 342 77 24 45 
33 50 238 113 278 119 100 51 228 
239 165 167 110 187 164 259 266 80 
221 48 182 11 179 86 4 161 260 
54 138 30 276 43 217 144 132 84 
88 331 36 195 44 74 67 128 134 
202 263 53 9 180 174 69 102 10 
185 115 197 93 66 188 332 255 168 
264 337 327 154 116 89 194 172 114 
149 85 22 125 275 151 156 230 139 
14 91 130 253 148 20 64 55 162 
15 104 201 105 124 28 175 311 143 
65 268 107 5 126 26 3 155 227 
120 97 219 29 57 292 23 42 1 
106 205 41 121 25 117 133 150 136 
200 140 135 47 8 71 99 60 72 
78 129 68 34 232 226 181 37 103 
152 177 340 112 27 147 142 75 118 
254 16 7 163 109 52 31 123 56 
171 293 290 303 189 21 94 316 272 
184 63 329 338 158 310 280 208 258 
274 13 191 35 157 216 17 153 271 
222 318 58 343 324 334 341 333 336 
169 312 160 288 247 111 357 122 241 
325 295 242 302 145 49 321 301 61 
83 270 313 206 339 210 335 40 223 
176 73 198 127 244 170 81 243 211 
249 220 98 204 279 193 319 294 286 
289 330 356 38 203 186 236 101 315 
265 146 257 209 82 62 298 326 245 
267 235 246 307 320 344 196 282 131 
166 287 39 273 137 277 352 252 305 
108 323 353 256 234 261 314 192 322 
309 308 284 317 248 214 328 190 299 
296 12 300 237 306 304 351 283 348 
354 141 231 349 285 251 281 269 297 
346 291 218 229 183 224 212 345 355 
215 347 350 225 362 233 369 368 367 
359 366 363 370 358 364 365 361 360 
382 379 383 373 375 374 380 378 371 
377 381 372 159 376 396 394 392 393 
388 386 390 387 395 384 385 391 389 
405 398 400 408 403 401 404 407 406 
409 402 421 399 397 418 420 414 412 
411 419 416 413 415 417 431 433 429 
410 432 427 422 428 425 430 423 426 
424 444 446 439 442 445 435 437 436 
440 438 434 441 443 457 454 458 449 
453 447 451 455 456 448 452 450 469 
466 459 463 467 465 471 461 460 470 
462 464 477 468 480 481 483 479 473 
478 484 472 475 474 495 476 482 497 
492 496 489 494 488 491 486 485 493 
490 487 
type 1 497 int
1 1 1 1 1 1 1 1 1 
1 1 1 1 1 1 1 1 1 
1 1 1 1 1 1 1 1 1 
1 1 1 1 1 1 1 1 1 
1 1 1 1 1 1 1 1 1 
1 1 1 1 1 1 1 1 1 
1 1 1 1 1 1 1 1 1 
1 1 1 1 1 1 1 1 1 
1 1 1 1 1 1 1 1 1 
1 1 1 1 1 1 1 1 1 
1 1 1 1 1 1 1 1 1 
1 1 1 1 1 1 1 1 1 
1 1 1 1 1 1 1 1 1 
1 1 1 1 1 1 1 1 1 
1 1 1 1 1 1 1 1 1 
1 1 1 1 1 1 1 1 1 
1 1 1 1 1 1 1 1 1 
1 1 1 1 1 1 1 1 1 
1 1 1 1 1 1 1 1 1 
1 1 1 1 1 1 1 1 1 
1 1 1 1 1 1 1 1 1 
1 1 1 1 1 1 1 1 1 
1 1 1 1 1 1 1 1 1 
1 1 1 1 1 1 1 1 1 
1 1 1 1 1 1 1 1 1 
1 1 1 1 1 1 1 1 1 
1 1 1 1 1 1 1 1 1 
1 1 1 1 1 1 1 1 1 
1 1 1 1 1 1 1 1 1 
1 1 1 1 1 1 1 1 1 
1 1 1 1 1 1 1 1 1 
1 1 1 1 1 1 1 1 1 
1 1 1 1 1 1 1 1 1 
1 1 1 1 1 1 1 1 1 
1 1 1 1 1 1 1 1 1 
1 1 1 1 1 1 1 1 1 
1 1 1 1 1 1 1 1 1 
1 1 1 1 1 1 1 1 1 
1 1 1 1 1 1 1 1 1 
1 1 1 1 1 1 1 1 1 
1 1 1 1 1 1 1 1 1 
1 1 1 1 1 1 1 1 1 
1 1 1 1 1 1 1 1 1 
1 1 1 1 1 1 1 1 1 
1 1 1 1 1 1 1 1 1 
1 1 1 1 1 1 1 1 1 
1 1 1 1 1 1 1 1 1 
1 1 1 1 1 1 1 1 1 
1 1 1 1 1 1 1 1 1 
1 1 1 1 1 1 1 1 1 
1 1 1 1 1 1 1 1 1 
1 1 1 1 1 1 1 1 1 
1 1 1 1 1 1 1 1 1 
1 1 1 1 1 1 1 1 1 
1 1 1 1 1 1 1 1 1 
1 1 
i 3 497 int
0 0 0 0 0 0 0 0 0 
0 0 0 0 0 0 0 0 0 
0 0 0 0 0 0 0 0 0 
0 0 0 0 0 0 0 0 0 
0 0 0 0 0 0 0 0 0 
0 0 0 0 0 0 0 0 0 
0 0 0 0 0 0 0 0 0 
0 0 0 0 0 0 0 0 0 
0 0 0 0 0 0 0 0 0 
0 0 0 0 0 0 0 0 0 
0 0 0 0 0 0 0 0 0 
0 0 0 0 0 0 0 0 0 
0 0 0 0 0 0 0 0 0 
0 0 0 0 0 0 0 0 0 
0 0 0 0 0 0 0 0 0 
0 0 0 0 0 0 0 0 0 
0 0 0 0 0 0 0 0 0 
0 0 0 0 0 0 0 0 0 
0 0 0 0 0 0 0 0 0 
0 0 0 0 0 0 0 0 0 
0 0 0 0 0 0 0 0 0 
0 0 0 0 0 0 0 0 0 
0 0 0 0 0 0 0 0 0 
0 0 0 0 0 0 0 0 0 
0 0 0 0 0 0 0 0 0 
0 0 0 0 0 0 0 0 0 
0 0 0 0 0 0 0 0 0 
0 0 0 0 0 0 0 0 0 
0 0 0 0 0 0 0 0 0 
0 0 0 0 0 0 0 0 0 
0 0 0 0 0 0 0 0 0 
0 0 0 0 0 0 0 0 0 
0 0 0 0 0 0 0 0 0 
0 0 0 0 0 0 0 0 0 
0 0 0 0 0 0 0 0 0 
0 0 0 0 0 0 0 0 0 
0 0 0 0 0 0 0 0 0 
0 0 0 0 0 0 0 0 0 
0 0 0 0 0 0 0 0 0 
0 0 0 0 0 0 0 0 0 
0 0 0 0 0 0 0 0 0 
0 0 0 0 0 0 0 0 0 
0 0 0 0 0 0 0 0 0 
0 0 0 0 0 0 0 0 0 
0 0 0 0 0 0 0 0 0 
0 0 0 0 0 0 0 0 0 
0 0 0 0 0 0 0 0 0 
0 0 0 0 0 0 0 0 0 
0 0 0 0 0 0 0 0 0 
0 0 0 0 0 0 0 0 0 
0 0 0 0 0 0 0 0 0 
0 0 0 0 0 0 0 0 0 
0 0 0 0 0 0 0 0 0 
0 0 0 0 0 0 0 0 0 
0 0 0 0 0 0 0 0 0 
0 0 0 0 0 0 0 0 0 
0 0 0 0 0 0 0 0 0 
0 0 0 0 0 0 0 0 0 
0 0 0 0 0 0 0 0 0 
0 0 0 0 0 0 0 0 0 
0 0 0 0 0 0 0 0 0 
0 0 0 0 0 0 0 0 0 
0 0 0 0 0 0 0 0 0 
0 0 0 0 0 0 0 0 0 
0 0 0 0 0 0 0 0 0 
0 0 0 0 0 0 0 0 0 
0 0 0 0 0 0 0 0 0 
0 0 0 0 0 0 0 0 0 
0 0 0 0 0 0 0 0 0 
0 0 0 0 0 0 0 0 0 
0 0 0 0 0 0 0 0 0 
0 0 0 0 0 0 0 0 0 
0 0 0 0 0 0 0 0 0 
0 0 0 0 0 0 0 0 0 
0 0 0 0 0 0 0 0 0 
0 0 0 0 0 0 0 0 0 
0 0 0 0 0 0 0 0 0 
0 0 0 0 0 0 0 0 0 
0 0 0 0 0 0 0 0 0 
0 0 0 0 0 0 0 0 0 
0 0 0 0 0 0 0 0 0 
0 0 0 0 0 0 0 0 0 
0 0 0 0 0 0 0 0 0 
0 0 0 0 0 0 0 0 0 
0 0 0 0 0 0 0 0 0 
0 0 0 0 0 0 0 0 0 
0 0 0 0 0 0 0 0 0 
0 0 0 0 0 0 0 0 0 
0 0 0 0 0 0 0 0 0 
0 0 0 0 0 0 0 0 0 
0 0 0 0 0 0 0 0 0 
0 0 0 0 0 0 0 0 0 
0 0 0 0 0 0 0 0 0 
0 0 0 0 0 0 0 0 0 
0 0 0 0 0 0 0 0 0 
0 0 0 0 0 0 0 0 0 
0 0 0 0 0 0 0 0 0 
0 0 0 0 0 0 0 0 0 
0 0 0 0 0 0 0 0 0 
0 0 0 0 0 0 0 0 0 
0 0 0 0 0 0 0 0 0 
0 0 0 0 0 0 0 0 0 
0 0 0 0 0 0 0 0 0 
0 0 0 0 0 0 0 0 0 
0 0 0 0 0 0 0 0 0 
0 0 0 0 0 0 0 0 0 
0 0 0 0 0 0 0 0 0 
0 0 0 0 0 0 0 0 0 
0 0 0 0 0 0 0 0 0 
0 0 0 0 0 0 0 0 0 
0 0 0 0 0 0 0 0 0 
0 0 0 0 0 0 0 0 0 
0 0 0 0 0 0 0 0 0 
0 0 0 0 0 0 0 0 0 
0 0 0 0 0 0 0 0 0 
0 0 0 0 0 0 0 0 0 
0 0 0 0 0 0 0 0 0 
0 0 0 0 0 0 0 0 0 
0 0 0 0 0 0 0 0 0 
0 0 0 0 0 0 0 0 0 
0 0 0 0 0 0 0 0 0 
0 0 0 0 0 0 0 0 0 
0 0 0 0 0 0 0 0 0 
0 0 0 0 0 0 0 0 0 
0 0 0 0 0 0 0 0 0 
0 0 0 0 0 0 0 0 0 
0 0 0 0 0 0 0 0 0 
0 0 0 0 0 0 0 0 0 
0 0 0 0 0 0 0 0 0 
0 0 0 0 0 0 0 0 0 
0 0 0 0 0 0 0 0 0 
0 0 0 0 0 0 0 0 0 
0 0 0 0 0 0 0 0 0 
0 0 0 0 0 0 0 0 0 
0 0 0 0 0 0 0 0 0 
0 0 0 0 0 0 0 0 0 
0 0 0 0 0 0 0 0 0 
0 0 0 0 0 0 0 0 0 
0 0 0 0 0 0 0 0 0 
0 0 0 0 0 0 0 0 0 
0 0 0 0 0 0 0 0 0 
0 0 0 0 0 0 0 0 0 
0 0 0 0 0 0 0 0 0 
0 0 0 0 0 0 0 0 0 
0 0 0 0 0 0 0 0 0 
0 0 0 0 0 0 0 0 0 
0 0 0 0 0 0 0 0 0 
0 0 0 0 0 0 0 0 0 
0 0 0 0 0 0 0 0 0 
0 0 0 0 0 0 0 0 0 
0 0 0 0 0 0 0 0 0 
0 0 0 0 0 0 0 0 0 
0 0 0 0 0 0 0 0 0 
0 0 0 0 0 0 0 0 0 
0 0 0 0 0 0 0 0 0 
0 0 0 0 0 0 0 0 0 
0 0 0 0 0 0 0 0 0 
0 0 0 0 0 0 0 0 0 
0 0 0 0 0 0 0 0 0 
0 0 0 0 0 0 0 0 0 
0 0 0 0 0 0 0 0 0 
0 0 0 0 0 0 0 0 0 
0 0 0 0 0 0 0 0 0 
0 0 0 0 0 0 0 0 0 
0 0 0 0 0 0 0 0 0 
0 0 0 0 0 0 
v 3 497 double
0.0307209 -0.0379312 4.84287e-08 0.0271052 -0.0631928 9.26606e-13 -0.0392098 -5.11518e-06 4.28535e-11 
-0.00326779 -0.118595 -0.024797 0.0851239 -0.039723 -0.0959946 -0.0330288 -0.0286422 -0.0757368 
0.00197951 -0.0970163 9.27883e-07 0.0619755 -0.0814947 -0.0374334 -0.0391355 0.0345324 -0.0821715 
-0.0498459 0.0614201 -0.0393745 0.019743 0.053606 -0.044545 -0.0108791 -0.013368 -0.00697036 
0.025076 0.0135168 -5.98039e-10 -0.0466799 0.0105071 1.18803e-05 -0.009021 -0.0483941 0.00413291 
-0.0518378 0.0272529 -7.65751e-09 0.104606 -0.130449 -4.65206e-13 -0.148592 -0.156243 -0.000202509 
0.00623502 -0.0180412 -4.65203e-13 0.0112913 0.0206441 -0.190258 -0.0162051 -0.0118654 -8.17226e-08 
0.0123882 0.0112941 -1.42148e-06 -0.146751 0.0611219 2.93328e-13 0 0 0.585562 
0.148774 0.0427086 0.0194655 -0.144377 -0.0370094 0.102924 -0.0471676 0.00453642 -8.89983e-09 
0.0435139 -0.076374 1.82869e-12 -0.00350843 -0.0027258 -2.43637e-08 0.00672835 0.0188144 -0.00733036 
0.0453642 0.0630221 1.19922e-05 -0.106658 -0.0291441 0.0446443 -0.015452 -0.105567 2.35737e-12 
0.0382034 -0.0620106 2.93329e-13 0.0394296 0.000410612 -0.0841075 0.0381168 0.0406858 -3.50993e-09 
0.0681915 -0.135297 0.110213 -0.0676447 -0.122473 6.72593e-13 0.082432 -0.0318507 -0.0444118 
0.0713538 0.00733429 6.45495e-05 0.0238351 0.0588651 -8.18097e-09 0.0250538 0.182831 -1.44187e-07 
0.149868 0.0109696 -0.0104571 0.0429754 -0.0869974 0.0119518 0.00422158 -0.0388033 0.00018633 
0.0290426 0.05632 -4.8828e-05 0.0210142 -0.00355959 3.66987e-12 -0.0153552 -0.273038 -0.0255371 
0.0838525 -0.0681186 -0.0229203 0.10792 -0.0367177 -0.0102127 0.0750411 0.00159999 -8.02978e-10 
-0.0289777 0.0930491 0.0405423 -0.0426238 0.0180164 0.000417175 0.0753678 -0.0243202 -0.0658497 
0.0331421 0.0171672 -3.48708e-05 0.029698 0.00913509 -6.55381e-13 -0.00192775 -0.0327672 0.00887314 
0.309436 0.32359 0.158575 -0.046249 -0.0574387 0.00295807 0.0866139 -0.0396356 0.00238196 
0.00387685 -0.01628 -1.60885e-06 0.043572 0.0348395 1.36495e-06 -0.237441 0.0399347 -0.000988212 
-0.103734 0.107569 0.0139964 -0.0475524 0.16446 0.0619976 0.0189587 0.0386533 -0.000149055 
0.00128314 0.0436661 0.0373295 0.107423 0.0913316 3.56456e-13 -0.169468 -0.207661 0.0149706 
0.0242105 -0.037796 0.00156098 -0.00639504 -0.0350229 -7.02441e-05 -0.00554728 -0.0224115 -0.0471472 
-0.233041 0.00851181 -0.0428765 -0.0912888 -0.118736 -2.75569e-13 0.00624633 -0.0390891 -0.000512754 
0.143805 0.152095 0.124697 0.268133 -0.165172 0.0221983 0.0303447 0.0136814 1.77857e-08 
-0.0268077 -0.196615 0.01916 0.0614541 -0.0200289 -0.00177876 0.0110885 -0.0642836 0.000519079 
0.0212657 -0.0173309 3.08749e-10 -0.0334531 0.0349149 -0.0310909 0.266227 -0.091294 0.00648316 
-0.00468827 -0.0120705 0.0316795 0.0342872 -0.0839362 -9.33323e-14 -0.0497326 0.0329524 -3.49937e-11 
-0.346717 -0.268962 0.312856 0.077236 -0.0914705 0.138761 0.0138395 -0.0733007 0.016712 
-0.011022 -0.0630722 0.155709 -0.336181 -0.0437938 0.201672 -0.0646768 0.321625 0.273544 
-0.00823165 -0.133554 -0.00110401 -0.00434514 0.0515699 -0.00146265 -0.0226688 0.030382 2.3012e-13 
-0.0477602 -0.125227 -0.073581 0.0188922 -0.0247708 0.0789606 0.0707617 -0.241013 -0.000387976 
0.0347581 0.11127 -2.62808e-06 -0.0254556 -0.0906191 -1.65372e-08 -0.0974864 0.310417 0.161231 
-0.0315812 -0.0434444 -0.00108618 -0.0238313 0.0209488 0.00152287 0.0327048 0.0714863 -5.87986e-05 
-0.0116969 0.0526477 0.0655192 0.0645885 0.0261883 7.70602e-05 0.0254651 -0.0213306 -0.0111612 
0.160256 -0.117629 -7.40484e-07 -0.0555967 -0.0455763 -2.8446e-05 0.045061 0.0165461 5.26109e-05 
-0.0819224 -0.136237 -0.076749 0.0342787 -0.0585669 -3.38781e-13 0.0953394 0.0821064 -3.3878e-13 
-0.0500543 -0.0158899 -1.49147e-13 -0.00319384 0.0860861 0.0140242 -0.00189779 0.102788 -0.198895 
0.0481824 -0.181856 -0.0211236 0.203216 -0.108271 0.000214322 -0.0545284 0.0395972 0.00419106 
-0.0720722 -0.038121 0.00569704 -0.000387039 -0.00312436 0.0211051 0.0139637 0.0460534 0.000689273 
0.0516623 0.0280111 -0.00158242 -0.0407378 -0.126945 0.0464358 0.00466569 -0.0550031 0.0214709 
-0.00426497 -0.0482614 0.000679446 0.0539642 0.0251079 1.15136e-05 -0.0298601 -0.0352609 0.0309894 
-0.0466759 -0.0467993 -0.00886132 0.0222333 -0.00858504 3.51329e-09 -0.00373974 0.0432343 7.28369e-05 
-0.0388874 0.0444946 0.00368867 -0.0396363 -0.0359022 0.00811389 0.0934896 0.00524796 0.00337027 
0.0487862 -0.0839229 -6.90572e-08 -0.112523 -0.0105944 -0.144603 -0.240864 -0.0396526 0.00225417 
-0.0229363 0.0126393 0.017609 -0.0215547 -0.0151821 -1.32662e-10 -0.0372935 -0.0113775 0.000457555 
-0.0425847 0.0203257 4.1975e-13 0.0258981 -0.107067 -0.000480141 0.00835261 0.00111423 -1.94356e-09 
-0.0838691 0.106304 -1.80532e-07 -0.013386 0.0343701 1.66907e-13 -0.0104169 -0.00786009 -0.00040871 