# vtk DataFile Version 4.0
Generated by LIGGGHTS
ASCII
DATASET POLYDATA
POINTS 318 float
0.0060632 -0.0477002 0.0814649 0.0190789 -0.0458306 0.0811234 -0.0219668 -0.0387288 0.0827635 
-0.026544 -0.0321771 0.0821183 -0.0111138 -0.0295245 0.0811192 -0.00400183 -0.0288348 0.0811205 
0.0127948 -0.0238387 0.0813199 -0.0255481 -0.0207256 0.0821298 0.0073322 -0.0203069 0.0828011 
-0.0185084 -0.0201551 0.0823319 -0.0122117 -0.0171248 0.0816956 0.0247132 -0.0177395 0.0813223 
0.00455373 -0.00833374 0.0831508 0.0349366 -0.0125894 0.0832023 -0.0423454 -0.00721504 0.0816261 
-0.012685 -0.00655046 0.0821183 -0.00787547 -0.00493876 0.0821227 0.0476944 -0.00354228 0.0812809 
-0.0411366 -0.00144659 0.0823259 -0.0160783 0.00172786 0.0814428 0.0149432 0.00161815 0.0826602 
-0.0334696 0.00828267 0.0824471 -0.00659596 0.00619693 0.082205 0.0192485 0.00521677 0.0821192 
-0.0336153 0.0121379 0.0811775 0.00104987 0.01106 0.0816615 0.00812832 0.0109641 0.0811205 
0.0232107 0.0116096 0.0819418 -0.0261251 0.012061 0.0824925 -0.0226708 0.0134668 0.0811205 
-0.0122427 0.0144027 0.082101 0.0267855 0.0129562 0.0820549 0.00259898 0.0173383 0.0821708 
-0.0378235 0.0214223 0.082118 -0.042464 0.0236057 0.0821594 -0.0316228 0.024555 0.0813182 
-0.00314418 0.0231856 0.0821183 0.00808746 0.0229084 0.0816542 -0.0342085 0.0285721 0.0821183 
-0.0291094 0.0288228 0.0813443 -0.0345527 0.034222 0.0811427 -0.00955594 0.0333127 0.0821221 
0.000488461 0.0362254 0.0815425 0.0104295 0.0338607 0.0815944 0.00920968 0.0405839 0.0824421 
-0.00885994 0.0460544 0.0811205 0.00264763 0.049067 0.0811205 0.00910483 -0.0433872 0.0829823 
0.0214676 -0.0434777 0.083828 0.00950334 -0.0346704 0.0826526 -0.0104149 -0.0326148 0.0850107 
-0.0104104 -0.0207503 0.0835458 -0.0233277 -0.0175492 0.0840266 0.0369854 -0.0172778 0.0844962 
0.0231433 -0.0135252 0.0831199 -0.0345787 -0.0094854 0.0855264 -0.0176285 -0.00607884 0.0831109 
0.0184252 -0.0082461 0.0830362 -0.0326885 -0.0026426 0.0835833 -0.0285861 -0.00507307 0.0820105 
-0.00719224 -0.00331155 0.0872212 0.0153804 -0.00700088 0.0827758 -0.0111231 -0.000128706 0.0818115 
-0.00750954 0.00122974 0.083133 0.00589893 0.00133789 0.0854314 0.0124672 -0.00134541 0.0840866 
0.027565 0.000812142 0.0830405 -0.030677 0.00320078 0.0842812 -0.0176776 0.00170243 0.0846272 
0.0475132 0.00310266 0.0829114 -0.0491135 0.00690096 0.0840405 0.0267592 0.00599371 0.0872193 
0.0369654 0.00903317 0.0858056 0.0128776 0.0147177 0.082895 0.0308498 0.0115238 0.0848387 
-0.0308383 0.0180216 0.0825796 -0.0177662 0.0150814 0.0849887 -0.019648 0.0210768 0.0830536 
0.0307638 0.0278599 0.0834233 -0.036311 0.0324887 0.0828863 -0.0280968 0.0336621 0.0837742 
0.0244401 0.0343862 0.0831974 0.0312591 0.0342848 0.085826 0.000760735 0.0399052 0.0853325 
0.00431802 0.0438331 0.0831434 0.0108394 0.0458692 0.0833279 0.0085977 -0.0411902 0.088227 
0.000513327 -0.037234 0.0839653 0.0329058 -0.0337887 0.0870187 -0.0280846 -0.0236135 0.0856519 
-0.0163435 -0.0160433 0.0875324 -0.0352105 -0.0157618 0.0853726 -0.0299327 -0.0114392 0.0844681 
0.0162196 -0.011017 0.0839984 0.00612491 -0.00559515 0.0878419 -0.0331682 -0.00149401 0.0867674 
-0.0215727 -0.00237227 0.0839244 -0.0399786 -9.02127e-05 0.0881625 -0.0288242 0.00189984 0.0893502 
-0.0154195 0.00203052 0.0872864 0.0385583 0.00714283 0.0891733 0.0486464 0.00503127 0.0872147 
-0.0446261 0.0115026 0.0901938 -0.0283594 0.015706 0.0864317 -0.0107817 0.0177258 0.0850704 
-0.00380271 0.0163367 0.0863343 0.0280893 0.0208762 0.0855945 0.0416488 0.0201045 0.0867885 
0.0259706 0.0253092 0.0890614 0.0420114 0.0253954 0.0880804 -0.0143867 0.0311586 0.0868903 
0.0190415 0.0347082 0.0906404 0.0278791 0.0408969 0.0884633 -0.0184 -0.0447451 0.0892342 
0.0156724 -0.0417724 0.0875972 0.0191908 -0.0335133 0.091045 0.0100235 -0.0296563 0.084803 
0.000695872 -0.0195816 0.0895199 -0.0123456 -0.00626609 0.0921442 -0.02805 -0.00244203 0.0918026 
-0.0109056 0.00849056 0.092544 -0.00744896 0.00604174 0.0931523 0.00734601 0.0141144 0.0898838 
0.0428861 0.0114457 0.0909762 -0.0431061 0.0162866 0.0921336 -0.00461067 0.0201597 0.0926012 
0.0175286 0.0267879 0.0915522 0.0153656 0.0308365 0.0925028 0.024301 0.0299108 0.0906009 
-0.0139362 0.0333473 0.090662 -0.00888824 0.0379912 0.0837538 0.017453 -0.0376727 0.0943013 
0.0310308 -0.0383164 0.0931665 -0.0158352 -0.0285597 0.0914562 -0.0146061 -0.0235894 0.0941476 
-0.0106315 -0.0258487 0.095462 0.0268873 -0.023404 0.093423 0.0364758 -0.0199476 0.0952154 
-0.0394632 -0.0190635 0.0883023 0.0144626 -0.0171911 0.0944196 0.0392417 -0.0168591 0.0934885 
-0.0399526 -0.00760015 0.0946917 -0.0423563 0.00567624 0.0948859 -0.0156079 0.0213692 0.0954402 
0.00801775 0.0249782 0.0942094 0.0330855 0.0344001 0.0946518 -0.0127018 0.0383043 0.091704 
-0.0109201 0.0432795 0.085612 0.0166814 0.0405036 0.0933394 0.00757233 0.046228 0.0954396 
0.00472921 0.0479138 0.0930395 -0.00676178 -0.041834 0.100153 -0.000992854 -0.0338985 0.100126 
-0.0242922 -0.0328428 0.0994832 0.0319689 -0.0241855 0.0996641 0.0336244 -0.0185083 0.0991452 
-0.0337087 -0.0108306 0.0981296 0.0149248 -0.00532292 0.0893304 -0.0378253 -0.00469282 0.0976959 
-0.00312493 0.00839474 0.0893902 0.0223641 0.00855333 0.098549 0.0343513 0.00656387 0.0888206 
0.0407912 0.00825282 0.0959451 0.0311961 0.0100253 0.0981378 -0.0257146 0.024211 0.0969931 
0.0368063 0.0249418 0.0956093 -0.0134176 0.0265745 0.0988045 0.006248 0.0315313 0.0911612 
0.0300866 0.0304163 0.10019 0.0209801 0.0386141 0.100163 -0.0101274 -0.0456694 0.100267 
0.0114037 -0.0394429 0.100183 0.0307318 -0.0370132 0.103693 -0.0314694 -0.0134405 0.0998117 
-0.0237248 -0.0145765 0.100015 0.0106651 -0.00762351 0.0922639 0.036145 -0.000227738 0.0999248 
0.0395227 0.0022394 0.0973223 -0.0227629 0.0205469 0.0940471 -0.0158798 -0.039925 0.0985073 
0.00595302 0.00916554 0.105608 0.039025 0.0219134 0.0990911 -0.0224629 -0.0228677 0.101139 
0.0028041 -0.024122 0.104742 -0.0101005 -0.0213979 0.102843 -0.0152252 0.00696465 0.103086 
-0.0379268 -0.016612 0.110736 -0.00658024 -0.00155355 0.113159 -0.00552842 0.0269783 0.111491 
0.0219946 -0.0376763 0.114024 -0.0036853 -0.0168807 0.114039 0.0383794 0.00255695 0.116606 
0.0153275 -0.0422684 0.119105 0.0122082 -0.0295271 0.117033 -0.0399829 0.00344261 0.117334 
0.0350186 0.0220146 0.118968 -0.0169694 -0.0346002 0.121619 -0.0171641 -0.0262288 0.123921 
-0.00621226 -0.0262392 0.122139 0.0232679 -0.00383425 0.124386 -0.036983 0.00451791 0.12504 
0.0178169 0.0333268 0.1246 0.0374607 0.0145023 0.128001 -0.00179404 0.0285702 0.12892 
0.0239905 0.0252732 0.133231 0.00405577 0.0277489 0.132592 -0.0155922 -0.0205517 0.135732 
0.0135178 0.0092656 0.136078 0.0201345 -0.0400988 0.140026 -0.0213682 -0.0344614 0.141966 
-0.0330728 -0.00347542 0.138753 -0.00915612 -0.00451394 0.139331 -0.00809063 0.0236033 0.141895 
0.0357889 -0.0195 0.147049 -0.0344664 -0.00949446 0.149834 -0.0343063 0.00158511 0.151767 
-0.00120813 -0.0332152 0.152946 0.018346 0.0122867 0.154211 -0.0337793 0.0179355 0.153526 
0.0381509 0.0211975 0.152996 -0.0316805 0.00495722 0.159302 0.0225462 0.0261161 0.158608 
0.000701606 -0.0417813 0.161499 -0.0109012 -0.00443881 0.165382 0.0318289 0.0155926 0.164544 
0.0199265 -0.0375448 0.167637 0.0340005 -0.0274077 0.168124 0.0318606 -0.00588886 0.167899 
-0.00046866 0.00191015 0.169661 0.024305 0.00185903 0.170789 -0.00389534 0.0123193 0.169403 
0.0127878 -0.0291644 0.173021 0.0202859 -0.014371 0.172641 -0.0383407 -0.0232859 0.176212 
0.0198366 -0.0307221 0.181346 0.03454 0.0229908 0.180003 -0.0150722 0.0359996 0.178807 
-0.0122128 0.0410633 0.180863 -0.00585506 0.0443711 0.179984 0.0254207 -0.0360626 0.181974 
-0.0264114 0.0118903 0.185256 0.0364039 0.00934801 0.184836 -0.00668483 0.0382707 0.183511 
-0.0165751 -0.038712 0.186691 0.032871 0.00778939 0.185482 -0.011216 0.0263764 0.186608 
0.00230119 -0.0336949 0.190741 -0.0117149 0.000627214 0.18936 -0.00648554 -0.0313558 0.192712 
-0.00648953 -0.0220096 0.192905 0.0264685 0.00611433 0.19305 0.000838145 0.0199605 0.196346 
-0.00446411 0.0246416 0.19724 0.0191889 0.0325979 0.198915 -0.00181526 0.0444847 0.197405 
-0.0357417 -0.021022 0.201596 -0.0249415 -0.017717 0.203079 -0.010498 -0.00824865 0.201044 
-0.00665319 0.00840212 0.202167 0.000509045 0.0395286 0.201179 0.0357618 0.0228648 0.204621 
-0.0190837 -0.0385507 0.207761 -0.0176693 -0.0113834 0.207536 0.0158662 -0.00182916 0.210471 
-0.0424457 -0.000150892 0.213703 -0.027432 0.00322227 0.211033 0.0426879 0.0134877 0.212136 
-0.0274258 -0.0349825 0.215904 -0.017574 -0.0132037 0.214402 -0.012655 -0.0121901 0.215328 
-0.00154237 -0.00647016 0.215332 0.0136003 -0.0252707 0.218389 0.0298504 -0.0251655 0.219382 
-0.0294183 -0.0211963 0.218378 -0.0213877 -0.0226463 0.219709 0.0245545 -0.014235 0.21859 
-0.0116067 0.0342706 0.219158 -0.021474 -0.0368448 0.221859 -0.000740023 -0.0360659 0.224744 
0.000861536 -0.00913537 0.223928 -0.0194592 0.0233388 0.222682 -0.0314586 -0.0131475 0.227179 
0.0207493 0.0245578 0.227695 0.00275579 -0.0260837 0.23046 0.0402762 -0.0163751 0.230289 
0.0143124 -0.0130284 0.231397 -0.0428708 -0.011805 0.231293 0.0246282 0.0162154 0.231627 
-0.0104751 0.0201344 0.230786 -0.00997197 0.0302713 0.232059 -0.0120979 -0.0281602 0.233078 
-0.0123717 -0.0198646 0.233619 0.0425117 -0.0144958 0.233188 -0.0262528 0.0167369 0.23468 
0.0141318 -0.0363161 0.239104 -0.0324409 -0.00912026 0.239319 -0.0193866 -0.0345939 0.241385 
0.0114178 -0.033482 0.240642 0.0413691 -0.00199891 0.239971 -0.0104894 0.0181699 0.242627 
-0.0325525 -0.0276598 0.243212 -0.0332879 -0.0233031 0.244562 0.0131963 0.0147036 0.243981 
0.0165558 0.0211279 0.246433 0.00543924 -0.0314838 0.247152 0.0327504 0.00114017 0.249181 
-0.0246293 0.0182181 0.249346 -0.026454 -0.0245447 0.251036 0.0248908 0.00240314 0.253737 
0.0115408 0.00544019 0.251249 0.0106892 0.0159746 0.252585 -0.0271281 0.000814539 0.254323 
0.0422706 0.00333544 0.254744 -0.0185276 0.00882339 0.254106 0.000721647 0.0249688 0.256258 
-0.0184277 0.0295787 0.256075 0.00761906 -0.0184204 0.258726 -0.0138045 0.027268 0.259557 

VERTICES 318 636
1 0 
1 1 
1 2 
1 3 
1 4 
1 5 
1 6 
1 7 
1 8 
1 9 
1 10 
1 11 
1 12 
1 13 
1 14 
1 15 
1 16 
1 17 
1 18 
1 19 
1 20 
1 21 
1 22 
1 23 
1 24 
1 25 
1 26 
1 27 
1 28 
1 29 
1 30 
1 31 
1 32 
1 33 
1 34 
1 35 
1 36 
1 37 
1 38 
1 39 
1 40 
1 41 
1 42 
1 43 
1 44 
1 45 
1 46 
1 47 
1 48 
1 49 
1 50 
1 51 
1 52 
1 53 
1 54 
1 55 
1 56 
1 57 
1 58 
1 59 
1 60 
1 61 
1 62 
1 63 
1 64 
1 65 
1 66 
1 67 
1 68 
1 69 
1 70 
1 71 
1 72 
1 73 
1 74 
1 75 
1 76 
1 77 
1 78 
1 79 
1 80 
1 81 
1 82 
1 83 
1 84 
1 85 
1 86 
1 87 
1 88 
1 89 
1 90 
1 91 
1 92 
1 93 
1 94 
1 95 
1 96 
1 97 
1 98 
1 99 
1 100 
1 101 
1 102 
1 103 
1 104 
1 105 
1 106 
1 107 
1 108 
1 109 
1 110 
1 111 
1 112 
1 113 
1 114 
1 115 
1 116 
1 117 
1 118 
1 119 
1 120 
1 121 
1 122 
1 123 
1 124 
1 125 
1 126 
1 127 
1 128 
1 129 
1 130 
1 131 
1 132 
1 133 
1 134 
1 135 
1 136 
1 137 
1 138 
1 139 
1 140 
1 141 
1 142 
1 143 
1 144 
1 145 
1 146 
1 147 
1 148 
1 149 
1 150 
1 151 
1 152 
1 153 
1 154 
1 155 
1 156 
1 157 
1 158 
1 159 
1 160 
1 161 
1 162 
1 163 
1 164 
1 165 
1 166 
1 167 
1 168 
1 169 
1 170 
1 171 
1 172 
1 173 
1 174 
1 175 
1 176 
1 177 
1 178 
1 179 
1 180 
1 181 
1 182 
1 183 
1 184 
1 185 
1 186 
1 187 
1 188 
1 189 
1 190 
1 191 
1 192 
1 193 
1 194 
1 195 
1 196 
1 197 
1 198 
1 199 
1 200 
1 201 
1 202 
1 203 
1 204 
1 205 
1 206 
1 207 
1 208 
1 209 
1 210 
1 211 
1 212 
1 213 
1 214 
1 215 
1 216 
1 217 
1 218 
1 219 
1 220 
1 221 
1 222 
1 223 
1 224 
1 225 
1 226 
1 227 
1 228 
1 229 
1 230 
1 231 
1 232 
1 233 
1 234 
1 235 
1 236 
1 237 
1 238 
1 239 
1 240 
1 241 
1 242 
1 243 
1 244 
1 245 
1 246 
1 247 
1 248 
1 249 
1 250 
1 251 
1 252 
1 253 
1 254 
1 255 
1 256 
1 257 
1 258 
1 259 
1 260 
1 261 
1 262 
1 263 
1 264 
1 265 
1 266 
1 267 
1 268 
1 269 
1 270 
1 271 
1 272 
1 273 
1 274 
1 275 
1 276 
1 277 
1 278 
1 279 
1 280 
1 281 
1 282 
1 283 
1 284 
1 285 
1 286 
1 287 
1 288 
1 289 
1 290 
1 291 
1 292 
1 293 
1 294 
1 295 
1 296 
1 297 
1 298 
1 299 
1 300 
1 301 
1 302 
1 303 
1 304 
1 305 
1 306 
1 307 
1 308 
1 309 
1 310 
1 311 
1 312 
1 313 
1 314 
1 315 
1 316 
1 317 

POINT_DATA 318
FIELD FieldData 7
id 1 318 int
90 18 2 94 70 59 13 4 33 
161 44 50 163 43 48 54 53 102 
144 22 14 65 28 66 57 72 122 
101 125 20 133 97 40 1 29 85 
3 71 41 8 47 118 127 60 31 
123 56 79 92 166 119 30 149 67 
157 58 36 11 116 132 124 165 64 
55 156 139 17 126 153 145 148 162 
160 104 158 107 154 5 129 135 83 
75 112 152 52 16 45 24 80 164 
138 12 84 21 151 9 169 168 38 
26 140 10 105 159 150 167 23 143 
155 73 25 147 142 76 19 137 173 
93 35 62 146 111 15 130 61 141 
136 131 37 68 177 46 110 39 77 
6 95 86 178 51 128 134 49 120 
106 78 34 170 27 7 81 96 100 
113 98 74 115 172 108 175 114 174 
82 91 121 42 117 181 103 99 32 
87 63 88 89 180 69 179 176 171 
109 186 191 182 189 194 183 188 190 
187 193 192 207 184 185 201 199 202 
204 203 197 198 205 196 200 206 195 
217 208 211 218 214 212 216 215 209 
213 231 210 219 225 226 220 222 227 
228 221 229 230 223 224 237 239 233 
240 234 235 243 244 238 236 241 242 
253 255 232 252 247 250 249 256 254 
245 246 251 259 264 263 257 248 265 
262 266 258 261 268 267 269 260 275 
280 272 279 274 271 277 281 278 273 
276 270 286 282 293 289 291 294 284 
292 285 290 287 288 283 303 304 299 
300 305 298 297 306 302 301 296 312 
295 310 318 311 307 314 315 309 313 
317 316 308 
type 1 318 int
1 1 1 1 1 1 1 1 1 
1 1 1 1 1 1 1 1 1 
1 1 1 1 1 1 1 1 1 
1 1 1 1 1 1 1 1 1 
1 1 1 1 1 1 1 1 1 
1 1 1 1 1 1 1 1 1 
1 1 1 1 1 1 1 1 1 
1 1 1 1 1 1 1 1 1 
1 1 1 1 1 1 1 1 1 
1 1 1 1 1 1 1 1 1 
1 1 1 1 1 1 1 1 1 
1 1 1 1 1 1 1 1 1 
1 1 1 1 1 1 1 1 1 
1 1 1 1 1 1 1 1 1 
1 1 1 1 1 1 1 1 1 
1 1 1 1 1 1 1 1 1 
1 1 1 1 1 1 1 1 1 
1 1 1 1 1 1 1 1 1 
1 1 1 1 1 1 1 1 1 
1 1 1 1 1 1 1 1 1 
1 1 1 1 1 1 1 1 1 
1 1 1 1 1 1 1 1 1 
1 1 1 1 1 1 1 1 1 
1 1 1 1 1 1 1 1 1 
1 1 1 1 1 1 1 1 1 
1 1 1 1 1 1 1 1 1 
1 1 1 1 1 1 1 1 1 
1 1 1 1 1 1 1 1 1 
1 1 1 1 1 1 1 1 1 
1 1 1 1 1 1 1 1 1 
1 1 1 1 1 1 1 1 1 
1 1 1 1 1 1 1 1 1 
1 1 1 1 1 1 1 1 1 
1 1 1 1 1 1 1 1 1 
1 1 1 1 1 1 1 1 1 
1 1 1 
i 3 318 int
0 0 0 0 0 0 0 0 0 
0 0 0 0 0 0 0 0 0 
0 0 0 0 0 0 0 0 0 
0 0 0 0 0 0 0 0 0 
0 0 0 0 0 0 0 0 0 
0 0 0 0 0 0 0 0 0 
0 0 0 0 0 0 0 0 0 
0 0 0 0 0 0 0 0 0 
0 0 0 0 0 0 0 0 0 
0 0 0 0 0 0 0 0 0 
0 0 0 0 0 0 0 0 0 
0 0 0 0 0 0 0 0 0 
0 0 0 0 0 0 0 0 0 
0 0 0 0 0 0 0 0 0 
0 0 0 0 0 0 0 0 0 
0 0 0 0 0 0 0 0 0 
0 0 0 0 0 0 0 0 0 
0 0 0 0 0 0 0 0 0 
0 0 0 0 0 0 0 0 0 
0 0 0 0 0 0 0 0 0 
0 0 0 0 0 0 0 0 0 
0 0 0 0 0 0 0 0 0 
0 0 0 0 0 0 0 0 0 
0 0 0 0 0 0 0 0 0 
0 0 0 0 0 0 0 0 0 
0 0 0 0 0 0 0 0 0 
0 0 0 0 0 0 0 0 0 
0 0 0 0 0 0 0 0 0 
0 0 0 0 0 0 0 0 0 
0 0 0 0 0 0 0 0 0 
0 0 0 0 0 0 0 0 0 
0 0 0 0 0 0 0 0 0 
0 0 0 0 0 0 0 0 0 
0 0 0 0 0 0 0 0 0 
0 0 0 0 0 0 0 0 0 
0 0 0 0 0 0 0 0 0 
0 0 0 0 0 0 0 0 0 
0 0 0 0 0 0 0 0 0 
0 0 0 0 0 0 0 0 0 
0 0 0 0 0 0 0 0 0 
0 0 0 0 0 0 0 0 0 
0 0 0 0 0 0 0 0 0 
0 0 0 0 0 0 0 0 0 
0 0 0 0 0 0 0 0 0 
0 0 0 0 0 0 0 0 0 
0 0 0 0 0 0 0 0 0 
0 0 0 0 0 0 0 0 0 
0 0 0 0 0 0 0 0 0 
0 0 0 0 0 0 0 0 0 
0 0 0 0 0 0 0 0 0 
0 0 0 0 0 0 0 0 0 
0 0 0 0 0 0 0 0 0 
0 0 0 0 0 0 0 0 0 
0 0 0 0 0 0 0 0 0 
0 0 0 0 0 0 0 0 0 
0 0 0 0 0 0 0 0 0 
0 0 0 0 0 0 0 0 0 
0 0 0 0 0 0 0 0 0 
0 0 0 0 0 0 0 0 0 
0 0 0 0 0 0 0 0 0 
0 0 0 0 0 0 0 0 0 
0 0 0 0 0 0 0 0 0 
0 0 0 0 0 0 0 0 0 
0 0 0 0 0 0 0 0 0 
0 0 0 0 0 0 0 0 0 
0 0 0 0 0 0 0 0 0 
0 0 0 0 0 0 0 0 0 
0 0 0 0 0 0 0 0 0 
0 0 0 0 0 0 0 0 0 
0 0 0 0 0 0 0 0 0 
0 0 0 0 0 0 0 0 0 
0 0 0 0 0 0 0 0 0 
0 0 0 0 0 0 0 0 0 
0 0 0 0 0 0 0 0 0 
0 0 0 0 0 0 0 0 0 
0 0 0 0 0 0 0 0 0 
0 0 0 0 0 0 0 0 0 
0 0 0 0 0 0 0 0 0 
0 0 0 0 0 0 0 0 0 
0 0 0 0 0 0 0 0 0 
0 0 0 0 0 0 0 0 0 
0 0 0 0 0 0 0 0 0 
0 0 0 0 0 0 0 0 0 
0 0 0 0 0 0 0 0 0 
0 0 0 0 0 0 0 0 0 
0 0 0 0 0 0 0 0 0 
0 0 0 0 0 0 0 0 0 
0 0 0 0 0 0 0 0 0 
0 0 0 0 0 0 0 0 0 
0 0 0 0 0 0 0 0 0 
0 0 0 0 0 0 0 0 0 
0 0 0 0 0 0 0 0 0 
0 0 0 0 0 0 0 0 0 
0 0 0 0 0 0 0 0 0 
0 0 0 0 0 0 0 0 0 
0 0 0 0 0 0 0 0 0 
0 0 0 0 0 0 0 0 0 
0 0 0 0 0 0 0 0 0 
0 0 0 0 0 0 0 0 0 
0 0 0 0 0 0 0 0 0 
0 0 0 0 0 0 0 0 0 
0 0 0 0 0 0 0 0 0 
0 0 0 0 0 0 0 0 0 
0 0 0 0 0 0 0 0 0 
0 0 0 0 0 0 0 0 0 
0 0 0 0 0 0 0 0 0 

v 3 318 double
-0.0256701 -0.419139 -0.0762488 0.06194 -0.0194816 -0.00283283 0 0 0.140974 
0.132572 0.115582 3.97564e-05 0.111289 -0.191034 -0.0146486 -0.0214782 -0.138502 2.30117e-13 
-0.0936988 -0.217867 -0.0459538 -0.0212213 -0.00596933 0.0100054 0.113307 -0.10685 0.133962 
-0.475578 -0.218968 0.372889 0.20407 0.0941604 0.153207 -0.000270676 -0.211288 -0.212437 
-0.135213 0.888672 0.213006 -0.119969 -0.117473 0.283453 -0.377771 -0.456376 -0.0857074 
0.0355876 -0.1873 -1.78404e-06 -0.0211731 -0.0831857 -0.0201959 -0.105969 -0.17821 -0.167035 
-0.555342 -0.213624 0.0665673 -0.0134375 -0.130725 0.0269812 -0.0716478 -0.100441 0.109352 
-0.154906 0.104336 0.138015 -0.0905133 0.0357749 0.00671949 0.0515193 -0.0949528 -0.000495974 
-0.0949179 0.138997 0.0458997 0.453845 0.360106 0.164775 0.21402 0.013361 3.80839e-05 
0.0491133 -0.0389291 0.0168118 0.133052 -0.338082 0.640458 -0.10798 -0.0452509 9.20983e-07 
0.258401 0.286163 -0.0417903 -0.386276 -0.104669 -0.0656539 -0.01359 0.0415618 -0.0393903 
0.0863773 0.0942606 -0.0185764 0.0128557 -0.0292643 0.0216484 -0.204543 -0.160457 -0.0276584 
0.00396184 -0.153981 -8.9761e-08 -0.0137782 -0.00129348 0.112283 -0.134773 0.0355921 -2.53835e-05 
0 0 0.166237 -0.0249916 -0.0816674 0.0415172 -0.180595 -0.0638677 0.00320362 
0.0910615 0.218042 -0.0858689 0.131847 -0.20718 -0.201765 -0.00486116 0.0506451 0.0667429 
-0.132145 0.285265 -2.9483e-06 -0.0257298 0.149918 -4.17645e-07 0.0486416 -0.371945 -0.0658773 
-0.00314811 0.122252 0.101392 0 0 0.586653 -0.375059 -0.0164034 0.00357889 
0.0668198 -0.0367207 -0.0556622 -0.232069 0.204197 0.305934 0.310357 -0.161206 -0.152395 
-0.00769048 0.0186881 0.590714 -0.197731 -0.0684364 0.0551398 -0.0173975 -0.0903654 0.0214531 
0.321612 -0.342538 0.00106447 -0.175275 -0.0405852 -0.106911 -0.170086 -0.0507459 0.361058 
-0.390554 0.147396 0.384773 -0.101558 -0.600307 -0.316612 -0.0271445 0.0399965 -0.193859 
-0.00772555 -0.00370978 -0.168025 -0.00225611 -0.00901609 0.342595 -0.10682 -0.145301 0.102519 
0.0402858 0.0421938 -0.0523149 0.218506 0.120987 0.240517 -0.365243 -0.172681 -0.00677572 
-0.205044 0.267683 0.269916 0.213745 0.123918 0.363198 0 0 0.50454 
-0.118951 -0.165037 0.505511 -0.00719814 -0.0203384 -0.383101 -0.329608 -0.376574 0.414704 
-0.0226751 -0.0465451 -0.0491802 -0.550308 -0.311888 0.282853 0.0345067 -0.0222937 -0.163152 
0.348592 0.206568 -0.0249481 0.0011301 -0.156236 0.0754483 0.268527 -0.118999 -0.322874 
0.0542303 0.0942118 -0.106288 -0.415211 0.152204 0.134075 -0.295405 -0.066021 0.0250616 
0.000642926 0.0134976 0.0515498 0.139312 -0.0894597 -0.138674 0.0238461 0.160264 -0.309195 
0 0 -0.564971 -0.0506846 0.166657 -0.0706658 -0.722281 -0.47495 -0.0616382 
0.373516 0.312014 -0.370467 -0.2232 -0.12581 -0.481683 -0.0384434 -0.238433 -0.622208 
0 0 -0.563791 -0.317856 0.0574727 0.367011 -0.140612 0.208318 -0.0520508 
0.460665 0.181126 -1.2301 -0.455465 0.0233626 0.0539314 0.0385983 0.00390165 0.0655868 
0 0 -0.503461 0.336653 0.58773 0.181487 0.0620096 -0.259189 -0.447288 
0.117411 -0.171908 0.164604 -0.370064 0.541035 0.918905 -0.392141 0.0245443 -0.274003 
0.839325 -0.285716 -0.553779 0 0 -0.535779 0.266392 0.167824 0.0423106 
0.354646 0.232952 0.362686 0.168573 0.319695 0.48978 -0.108121 -0.142468 -0.25482 
-0.0185778 0.150982 0.315801 -0.121226 -0.03102 -0.0557112 -0.131256 0.185113 -0.12461 
0 0 -0.497254 -0.188623 0.0131908 0.36078 0 0 -2.066 
0.441854 0.186276 -0.119504 0.186614 -0.0508075 0.0150947 -0.0506876 0.223658 0.173456 
-0.0304906 0.00420971 0.383862 -0.0104182 -0.131971 0.273198 -0.0820666 0.0869656 -0.145492 
0.14247 -0.275186 0.249298 0.133457 0.0517932 0.0925039 0 0 0.386457 
0.121621 0.148997 -0.0289191 -0.147665 0.20469 0.315201 0 0 -0.434277 
-0.0787882 -0.0589741 -0.204145 0 0 -2.07101 0 0 -0.34001 
-0.0202158 0.0904819 -0.176724 0 0 -0.41436 0.222471 -0.0933092 -0.466991 
-0.247712 0.098637 0.232214 -0.0135694 -0.136155 -0.110252 0.0599791 -0.136139 0.0508338 
0 0 -2.04933 0 0 -0.336577 0.168247 0.0551721 0.082146 
0 0 0.357377 0 0 -0.322916 -0.206555 0.0460899 0.0398277 
0.0443562 -0.175106 -0.0443133 0.0370144 -0.161992 0.0179735 0 0 -0.408858 
0 0 -2.06218 0 0 -0.400066 0.381292 -0.0464731 -0.136069 
0.260737 -0.0437522 -0.107805 0 0 0.0308298 0 0 0.0381593 
0 0 0.118508 0 0 0.105263 0 0 -0.147203 
0 0 0.20165 0 0 -2.04442 -0.0636694 -0.00331705 0.178809 
0 0 -2.04413 0 0 0.179625 0 0 -2.04687 
0.0982591 0.465795 -0.937227 0.0546146 -0.0314863 0.00663602 -0.109995 0.0533967 0.0709024 
-0.00439871 -0.000863641 -0.302729 0 0 0.229665 0 0 -2.03559 
0 0 0.0383629 0 0 0.0470671 -0.0762527 -0.299918 -0.321863 
0 0 -0.015185 0.0654727 0.256069 0.172001 0 0 -0.0881662 
0 0 -0.0594267 0 0 -2.0303 0 0 -0.0922748 
-0.0982591 -0.465795 -1.12951 0 0 -2.02166 0 0 -1.99988 
-0.315383 0.358763 -0.117457 0 0 -1.99704 0 0 -1.98694 
0 0 -1.96908 0 0 -1.9785 0 0 -1.97732 
0 0 -1.93896 0 0 -1.9267 0 0 -1.93514 
0 0 -1.92229 0 0 -1.92219 0 0 -1.90904 
0 0 -1.89619 0 0 -1.90689 0 0 -1.90532 
0 0 -1.89688 0 0 -1.88315 0 0 -1.87108 
0 0 -1.8804 0 0 -1.86863 0 0 -1.86519 
0 0 -1.86755 0 0 -1.8496 0 0 -1.84469 
0 0 -1.82164 0 0 -1.82507 0 0 -1.8081 
0 0 -1.80623 0 0 -1.78465 0 0 -1.77396 
0 0 -1.79162 0 0 -1.78848 0 0 -1.77435 
0 0 -1.74561 0 0 -1.72991 0 0 -1.71893 
0 0 -1.71216 0 0 -1.7049 0 0 -1.70882 
0 0 -1.71186 0 0 -1.67537 0 0 -1.67939 
0 0 -1.66242 0 0 -1.63937 0 0 -1.64437 
0 0 -1.62583 0 0 -1.62289 0 0 -1.62426 
0 0 -1.61357 0 0 -1.6067 0 0 -1.61514 
0 0 -1.59297 0 0 -1.59532 0 0 -1.57325 
0 0 -1.54087 0 0 -1.54941 0 0 -1.55696 
0 0 -1.54392 0 0 -1.54951 0 0 -1.53685 
0 0 -1.51576 0 0 -1.51851 0 0 -1.52704 
0 0 -1.50644 0 0 -1.51429 0 0 -1.50703 
0 0 -1.47986 0 0 -1.48898 0 0 -1.46671 
0 0 -1.46544 0 0 -1.46445 0 0 -1.44219 
0 0 -1.4361 0 0 -1.42463 0 0 -1.43502 
0 0 -1.40608 0 0 -1.39569 0 0 -1.40991 
0 0 -1.40206 0 0 -1.40893 0 0 -1.3848 
0 0 -1.36233 0 0 -1.364 0 0 -1.34271 
0 0 -1.31887 0 0 -1.33859 0 0 -1.33045 
0 0 -1.30239 0 0 -1.31367 0 0 -1.30671 
0 0 -1.30671 0 0 -1.28356 0 0 -1.27591 
0 0 -1.28366 0 0 -1.27345 0 0 -1.28199 
0 0 -1.27767 0 0 -1.25678 0 0 -1.23402 
0 0 -1.24049 0 0 -1.2503 0 0 -1.2145 
0 0 -1.21038 0 0 -1.18771 0 0 -1.18909 
0 0 -1.17996 0 0 -1.18085 0 0 -1.178 
0 0 -1.18507 0 0 -1.17447 0 0 -1.16594 
0 0 -1.16133 0 0 -1.16496 0 0 -1.1523 
0 0 -1.11404 0 0 -1.11218 0 0 -1.09373 
0 0 -1.10041 0 0 -1.10639 0 0 -1.08255 
0 0 -1.07725 0 0 -1.06489 0 0 -1.07019 
0 0 -1.04753 0 0 -1.04076 0 0 -1.02143 
0 0 -1.01987 0 0 -1.00348 0 -0 -1 
0 0 -1.00142 0 -0 -1 0 -0 -1 
0 -0 -1 0 -0 -1 0 -0 -1 
0 -0 -1 0 -0 -1 0 -0 -1 

f 3 318 double
0 0 -0.000346714 0.000154895 0.00609727 0.000540372 0 0 -0.00160516 
8.69617e-08 7.58174e-08 -2.42573e-05 -3.16869e-06 5.51645e-06 0.00166601 2.11486e-18 2.856e-17 0 
0 0 -0.000346714 0 0 -0.00160516 0 0 -0.000346714 
0 0 -0.000346714 0 0 -0.000346714 0 0 -0.000346714 
0 0 -0.000346714 0 0 -0.00160516 0 0 -0.000346714 
-7.93227e-10 4.80011e-09 -2.51745e-07 0 0 -0.00160516 0 0 -0.000346714 
0 0 -0.00160516 0 0 -0.000346714 0 0 -0.00160516 
0 0 -0.00160516 0 0 -0.00160516 -4.46771e-07 8.29356e-08 -0.000421907 
0 0 -0.000346714 0 0 -0.000346714 4.2163e-08 2.63222e-09 2.04274e-06 
0 0 -0.000346714 0 0 -0.000346714 -5.36396e-10 -2.24786e-10 -2.73742e-08 
-0.00534942 0.00997938 0.0322748 0 0 -0.000346714 0 0 -0.00160516 
-8.20601e-06 1.70066e-05 0.00413605 0 0 -0.00160516 0 0 -0.000346714 
-5.29732e-12 2.05886e-10 4.41845e-09 0 0 -0.000346714 4.33799e-08 -1.01749e-08 -6.19042e-07 
0 0 -0.000346714 0 0 -0.000346714 -2.83009e-06 -1.28172e-06 -0.00179205 
0 0 -0.000346714 0 0 -0.000346714 0 0 -0.00160516 
2.09431e-09 -4.52106e-09 6.91306e-08 2.14371e-10 -1.24906e-09 2.11502e-06 0 0 -0.00160516 
0 0 -0.00160516 0 0 -0.000346714 0 0 -0.00160516 
0 0 -0.00160516 0 0 -0.000346714 0 0 -0.00160516 
0 0 -0.00160516 0 0 -0.000346714 0 0 -0.000346714 
0 0 -0.000346714 0 0 -0.000346714 -0.0410204 -0.0194227 0.0723038 
0 0 -0.000346714 0 0 -0.000346714 0 0 -0.000346714 
0 0 -0.00160516 0 0 -0.00160516 0 0 -0.000346714 
0 0 -0.00160516 0 0 -0.000346714 0 0 -0.000346714 
0 0 -0.00160516 0 0 -0.000346714 0 0 -0.000346714 
0 0 -0.00160516 0 0 -0.00160516 0 0 -0.00160516 
0 0 -0.00160516 0 0 -0.000346714 0 0 -0.00160516 
0 0 -0.000346714 0 0 -0.000346714 0 0 -0.000346714 
0 0 -0.000346714 0 0 -0.000346714 0 0 -0.000346714 
0 0 -0.00160516 0 0 -0.00160516 0 0 -0.000346714 
0 0 -0.000346714 0 0 -0.00160516 0 0 -0.000346714 
0 0 -0.000346714 0 0 -0.000346714 0 0 -0.000346714 
0 0 -0.000346714 0 0 -0.000346714 0 0 -0.000346714 
0 0 -0.00160516 0 0 -0.000346714 0 0 -0.000346714 
0 0 -0.000346714 0 0 -0.000346714 0 0 -0.000346714 
0 0 -0.00160516 0 0 -0.00160516 0 0 -0.000346714 
0 0 -0.000346714 0 0 -0.000346714 0 0 -0.00160516 
0 0 -0.000346714 0 0 -0.000346714 0 0 -0.000346714 
0 0 -0.00160516 0 0 -0.000346714 0 0 -0.000346714 
0 0 -0.000346714 0 0 -0.000346714 0 0 -0.000346714 
0 0 -0.00160516 0 0 -0.000346714 0 0 -0.000346714 
0 0 -0.00160516 0 0 -0.000346714 0 0 -0.00160516 
0 0 -0.00160516 0 0 -0.000346714 0 0 -0.000346714 
0 0 -0.000346714 0 0 -0.00160516 0 0 -0.000346714 
0 0 -0.00160516 0 0 -0.000346714 0 0 -0.000346714 
0 0 -0.000346714 0 0 -0.000346714 0 0 -0.000346714 
0 0 -0.000346714 0 0 -0.000346714 0 0 -0.000346714 
0 0 -0.000346714 0 0 -0.000346714 0 0 -0.000346714 
0 0 -0.00160516 0 0 -0.000346714 0 0 -0.00160516 
0 0 -0.00160516 0 0 -0.00160516 0 0 -0.000346714 
0 0 -0.00160516 0 0 -0.00160516 0 0 -0.000346714 
0 0 -0.00160516 0 0 -0.000346714 0 0 -0.000346714 
0 0 -0.000346714 0 0 -0.000346714 0 0 -0.000346714 
0 0 -0.000346714 0 0 -0.00160516 0 0 -0.000346714 
0 0 -0.000346714 0 0 -0.000346714 0 0 -0.000346714 
0 0 -0.000346714 0 0 -0.00160516 0 0 -0.00160516 
0 0 -0.00160516 0 0 -0.00160516 0 0 -0.000346714 
0 0 -0.000346714 0 0 -0.000346714 0 0 -0.000346714 
0 0 -0.000346714 0 0 -0.000346714 0 0 -0.000346714 
0 0 -0.000346714 0 0 -0.000346714 0 0 -0.000346714 
0 0 -0.000346714 0 0 -0.000346714 0 0 -0.00160516 
0 0 -0.000346714 0 0 -0.000346714 0 0 -0.000346714 
0 0 -0.00160516 0 0 -0.000346714 0 0 -0.000346714 
0 0 -0.00160516 0 0 -0.000346714 0 0 -0.000346714 
0 0 -0.000346714 0 0 -0.000346714 0 0 -0.000346714 
0 0 -0.000346714 0 0 -0.00160516 0 0 -0.00160516 
0 0 -0.000346714 0 0 -0.000346714 0 0 -0.000346714 
0 0 -0.000346714 0 0 -0.000346714 0 0 -0.00160516 
0 0 -0.00160516 0 0 -0.000346714 0 0 -0.00160516 
0 0 -0.000346714 0 0 -0.000346714 0 0 -0.00160516 
0 0 -0.000346714 0 0 -0.00160516 0 0 -0.00160516 
0 0 -0.000346714 0 0 -0.000346714 0 0 -0.000346714 
0 0 -0.000346714 0 0 -0.000346714 0 0 -0.00160516 
0 0 -0.000346714 0 0 -0.000346714 0 0 -0.00160516 
0 0 -0.000346714 0 0 -0.000346714 0 0 -0.000346714 
0 0 -0.00160516 0 0 -0.00160516 0 0 -0.000346714 
0 0 -0.000346714 0 0 -0.00160516 0 0 -0.000346714 
0 0 -0.000346714 0 0 -0.00160516 0 0 -0.000346714 
0 0 -0.000346714 0 0 -0.000346714 0 0 -0.00160516 
0 0 -0.000346714 0 0 -0.00160516 0 0 -0.00160516 
0 0 -0.000346714 0 0 -0.000346714 0 0 -0.000346714 
0 0 -0.00160516 0 0 -0.000346714 0 0 -0.000346714 
0 0 -0.000346714 0 0 -0.000346714 0 0 -0.00160516 
0 0 -0.000346714 0 0 -0.00160516 0 0 -0.000346714 
0 0 -0.000346714 0 0 -0.000346714 0 0 -0.000346714 
0 0 -0.00160516 0 0 -0.00160516 0 0 -0.000346714 
0 0 -0.00160516 0 0 -0.000346714 0 0 -0.000346714 
0 0 -0.00160516 0 0 -0.00160516 0 0 -0.000346714 
0 0 -0.000346714 0 0 -0.000346714 0 0 -0.00160516 
0 0 -0.000346714 0 0 -0.000346714 0 0 -0.000346714 
0 0 -0.00160516 0 0 -0.00160516 0 0 -0.000346714 
0 0 -0.000346714 0 0 -0.00160516 0 0 -0.000346714 
0 0 -0.000346714 0 0 -0.00160516 0 0 -0.000346714 
0 0 -0.000346714 0 0 -0.000346714 0 0 -0.000346714 
0 0 -0.000346714 0 0 -0.00160516 0 0 -0.000346714 
0 0 -0.00160516 0 0 -0.000346714 0 0 -0.000346714 
0 0 -0.000346714 0 0 -0.000346714 0 0 -0.00160516 
0 0 -0.000346714 0 0 -0.00160516 0 0 -0.000346714 
0 0 -0.000346714 0 0 -0.000346714 0 0 -0.00160516 
0 0 -0.000346714 0 0 -0.000346714 0 0 -0.000346714 
0 0 -0.000346714 0 0 -0.000346714 0 0 -0.00160516 
0 0 -0.00160516 0 0 -0.000346714 0 0 -0.000346714 
0 0 -0.000346714 0 0 -0.00160516 0 0 -0.000346714 
0 0 -0.00160516 0 0 -0.00160516 0 0 0 
0 0 -0.000346714 0 0 0 0 0 0 
0 0 0 0 0 0 0 0 0 
0 0 0 0 0 0 0 0 0 

radius 1 318 double
0.0015 0.0015 0.0025 0.0025 0.0015 0.0015 0.0015 0.0025 0.0015 
0.0015 0.0015 0.0015 0.0015 0.0025 0.0015 0.0025 0.0025 0.0015 
0.0025 0.0015 0.0025 0.0025 0.0025 0.0025 0.0015 0.0015 0.0015 
0.0015 0.0015 0.0015 0.0025 0.0015 0.0025 0.0025 0.0025 0.0015 
0.0025 0.0015 0.0025 0.0015 0.0015 0.0025 0.0015 0.0015 0.0025 
0.0015 0.0015 0.0025 0.0025 0.0015 0.0025 0.0025 0.0015 0.0025 
0.0025 0.0015 0.0015 0.0015 0.0015 0.0025 0.0015 0.0015 0.0015 
0.0025 0.0025 0.0015 0.0025 0.0015 0.0015 0.0025 0.0015 0.0015 
0.0025 0.0025 0.0025 0.0025 0.0015 0.0025 0.0015 0.0015 0.0015 
0.0015 0.0015 0.0015 0.0025 0.0025 0.0015 0.0015 0.0025 0.0015 
0.0015 0.0015 0.0015 0.0015 0.0015 0.0015 0.0025 0.0015 0.0015 
0.0015 0.0015 0.0015 0.0025 0.0025 0.0015 0.0015 0.0015 0.0025 
0.0015 0.0015 0.0015 0.0025 0.0015 0.0015 0.0015 0.0015 0.0015 
0.0025 0.0015 0.0015 0.0025 0.0015 0.0025 0.0025 0.0015 0.0015 
0.0015 0.0025 0.0015 0.0025 0.0015 0.0015 0.0015 0.0015 0.0015 
0.0015 0.0015 0.0015 0.0015 0.0015 0.0015 0.0025 0.0015 0.0025 
0.0025 0.0025 0.0015 0.0025 0.0025 0.0015 0.0025 0.0015 0.0015 
0.0015 0.0015 0.0015 0.0015 0.0025 0.0015 0.0015 0.0015 0.0015 
0.0015 0.0025 0.0025 0.0025 0.0025 0.0015 0.0015 0.0015 0.0015 
0.0015 0.0015 0.0015 0.0015 0.0015 0.0015 0.0015 0.0015 0.0025 
0.0015 0.0015 0.0015 0.0025 0.0015 0.0015 0.0025 0.0015 0.0015 
0.0015 0.0015 0.0015 0.0015 0.0025 0.0025 0.0015 0.0015 0.0015 
0.0015 0.0015 0.0025 0.0025 0.0015 0.0025 0.0015 0.0015 0.0025 
0.0015 0.0025 0.0025 0.0015 0.0015 0.0015 0.0015 0.0015 0.0025 
0.0015 0.0015 0.0025 0.0015 0.0015 0.0015 0.0025 0.0025 0.0015 
0.0015 0.0025 0.0015 0.0015 0.0025 0.0015 0.0015 0.0015 0.0025 