# vtk DataFile Version 4.0
Generated by LIGGGHTS
ASCII
DATASET POLYDATA
POINTS 441 float
-0.00164205 -0.0512051 0.251392 0.0049194 -0.0509947 0.0796222 -0.00164205 -0.0512051 0.0796222 
-0.00817654 -0.0505748 0.251392 -0.00164205 -0.0512051 0.251392 -0.00164205 -0.0512051 0.0796222 
-0.00817654 -0.0505748 0.0796222 -0.00817654 -0.0505748 0.251392 -0.00164205 -0.0512051 0.0796222 
-6.70649e-18 0 0.0796222 -0.00817654 -0.0505748 0.0796222 -0.00164205 -0.0512051 0.0796222 
0.0049194 -0.0509947 0.0796222 -6.70649e-18 0 0.0796222 -0.00164205 -0.0512051 0.0796222 
0.0049194 -0.0509947 0.251392 0.0049194 -0.0509947 0.0796222 -0.00164205 -0.0512051 0.251392 
0.0049194 -0.0509947 0.251392 0.0114001 -0.049947 0.0796222 0.0049194 -0.0509947 0.0796222 
0.0114001 -0.049947 0.0796222 -6.70649e-18 0 0.0796222 0.0049194 -0.0509947 0.0796222 
0.0114001 -0.049947 0.251392 0.0114001 -0.049947 0.0796222 0.0049194 -0.0509947 0.251392 
-0.0145768 -0.049114 0.251392 -0.00817654 -0.0505748 0.251392 -0.00817654 -0.0505748 0.0796222 
-0.0145768 -0.049114 0.0796222 -0.0145768 -0.049114 0.251392 -0.00817654 -0.0505748 0.0796222 
-6.70649e-18 0 0.0796222 -0.0145768 -0.049114 0.0796222 -0.00817654 -0.0505748 0.0796222 
0.0114001 -0.049947 0.251392 0.0176936 -0.0480791 0.0796222 0.0114001 -0.049947 0.0796222 
0.0176936 -0.0480791 0.0796222 -6.70649e-18 0 0.0796222 0.0114001 -0.049947 0.0796222 
0.0176936 -0.0480791 0.251392 0.0176936 -0.0480791 0.0796222 0.0114001 -0.049947 0.251392 
-0.0207376 -0.0468467 0.251392 -0.0145768 -0.049114 0.251392 -0.0145768 -0.049114 0.0796222 
-0.0207376 -0.0468467 0.0796222 -0.0207376 -0.0468467 0.251392 -0.0145768 -0.049114 0.0796222 
-6.70649e-18 0 0.0796222 -0.0207376 -0.0468467 0.0796222 -0.0145768 -0.049114 0.0796222 
0.0176936 -0.0480791 0.251392 0.0236965 -0.0454218 0.0796222 0.0176936 -0.0480791 0.0796222 
0.0236965 -0.0454218 0.0796222 -6.70649e-18 0 0.0796222 0.0176936 -0.0480791 0.0796222 
0.0236965 -0.0454218 0.251392 0.0236965 -0.0454218 0.0796222 0.0176936 -0.0480791 0.251392 
-0.026558 -0.0438102 0.251392 -0.0207376 -0.0468467 0.251392 -0.0207376 -0.0468467 0.0796222 
-0.026558 -0.0438102 0.0796222 -0.026558 -0.0438102 0.251392 -0.0207376 -0.0468467 0.0796222 
-6.70649e-18 0 0.0796222 -0.026558 -0.0438102 0.0796222 -0.0207376 -0.0468467 0.0796222 
0.0236965 -0.0454218 0.251392 0.0293104 -0.0420186 0.0796222 0.0236965 -0.0454218 0.0796222 
0.0293104 -0.0420186 0.0796222 -6.70649e-18 0 0.0796222 0.0236965 -0.0454218 0.0796222 
0.0293104 -0.0420186 0.251392 0.0293104 -0.0420186 0.0796222 0.0236965 -0.0454218 0.251392 
-0.0319423 -0.0400544 0.251392 -0.026558 -0.0438102 0.251392 -0.026558 -0.0438102 0.0796222 
-0.0319423 -0.0400544 0.0796222 -0.0319423 -0.0400544 0.251392 -0.026558 -0.0438102 0.0796222 
-6.70649e-18 0 0.0796222 -0.0319423 -0.0400544 0.0796222 -0.026558 -0.0438102 0.0796222 
0.0293104 -0.0420186 0.251392 0.034443 -0.0379255 0.0796222 0.0293104 -0.0420186 0.0796222 
0.034443 -0.0379255 0.0796222 -6.70649e-18 0 0.0796222 0.0293104 -0.0420186 0.0796222 
0.034443 -0.0379255 0.251392 0.034443 -0.0379255 0.0796222 0.0293104 -0.0420186 0.251392 
-0.0368021 -0.0356408 0.251392 -0.0319423 -0.0400544 0.251392 -0.0319423 -0.0400544 0.0796222 
-0.0368021 -0.0356408 0.0796222 -0.0368021 -0.0356408 0.251392 -0.0319423 -0.0400544 0.0796222 
-6.70649e-18 0 0.0796222 -0.0368021 -0.0356408 0.0796222 -0.0319423 -0.0400544 0.0796222 
0.034443 -0.0379255 0.251392 0.03901 -0.0332097 0.0796222 0.034443 -0.0379255 0.0796222 
0.03901 -0.0332097 0.0796222 -6.70649e-18 0 0.0796222 0.034443 -0.0379255 0.0796222 
0.03901 -0.0332097 0.251392 0.03901 -0.0332097 0.0796222 0.034443 -0.0379255 0.251392 
-0.0410576 -0.0306421 0.251392 -0.0368021 -0.0356408 0.251392 -0.0368021 -0.0356408 0.0796222 
-0.0410576 -0.0306421 0.0796222 -0.0410576 -0.0306421 0.251392 -0.0368021 -0.0356408 0.0796222 
-6.70649e-18 0 0.0796222 -0.0410576 -0.0306421 0.0796222 -0.0368021 -0.0356408 0.0796222 
0.03901 -0.0332097 0.251392 0.0429365 -0.0279486 0.0796222 0.03901 -0.0332097 0.0796222 
0.0429365 -0.0279486 0.0796222 -6.70649e-18 0 0.0796222 0.03901 -0.0332097 0.0796222 
0.0429365 -0.0279486 0.251392 0.0429365 -0.0279486 0.0796222 0.03901 -0.0332097 0.251392 
-0.0446389 -0.0251402 0.251392 -0.0410576 -0.0306421 0.251392 -0.0410576 -0.0306421 0.0796222 
-0.0446389 -0.0251402 0.0796222 -0.0446389 -0.0251402 0.251392 -0.0410576 -0.0306421 0.0796222 
-6.70649e-18 0 0.0796222 -0.0446389 -0.0251402 0.0796222 -0.0410576 -0.0306421 0.0796222 
0.0429365 -0.0279486 0.251392 0.0461579 -0.0222285 0.0796222 0.0429365 -0.0279486 0.0796222 
0.0461579 -0.0222285 0.0796222 -6.70649e-18 0 0.0796222 0.0429365 -0.0279486 0.0796222 
0.0461579 -0.0222285 0.251392 0.0461579 -0.0222285 0.0796222 0.0429365 -0.0279486 0.251392 
-0.0474873 -0.0192255 0.251392 -0.0446389 -0.0251402 0.251392 -0.0446389 -0.0251402 0.0796222 
-0.0474873 -0.0192255 0.0796222 -0.0474873 -0.0192255 0.251392 -0.0446389 -0.0251402 0.0796222 
-6.70649e-18 0 0.0796222 -0.0474873 -0.0192255 0.0796222 -0.0446389 -0.0251402 0.0796222 
0.0461579 -0.0222285 0.251392 0.0486215 -0.0161435 0.0796222 0.0461579 -0.0222285 0.0796222 
0.0486215 -0.0161435 0.0796222 -6.70649e-18 0 0.0796222 0.0461579 -0.0222285 0.0796222 
0.0486215 -0.0161435 0.251392 0.0486215 -0.0161435 0.0796222 0.0461579 -0.0222285 0.251392 
-0.0495559 -0.0129951 0.251392 -0.0474873 -0.0192255 0.251392 -0.0474873 -0.0192255 0.0796222 
-0.0495559 -0.0129951 0.0796222 -0.0495559 -0.0129951 0.251392 -0.0474873 -0.0192255 0.0796222 
-6.70649e-18 0 0.0796222 -0.0495559 -0.0129951 0.0796222 -0.0474873 -0.0192255 0.0796222 
0.0486215 -0.0161435 0.251392 0.0502867 -0.00979334 0.0796222 0.0486215 -0.0161435 0.0796222 
0.0502867 -0.00979334 0.0796222 -6.70649e-18 0 0.0796222 0.0486215 -0.0161435 0.0796222 
0.0502867 -0.00979334 0.251392 0.0502867 -0.00979334 0.0796222 0.0486215 -0.0161435 0.251392 
-0.0508109 -0.00655133 0.251392 -0.0495559 -0.0129951 0.251392 -0.0495559 -0.0129951 0.0796222 
-0.0508109 -0.00655133 0.0796222 -0.0508109 -0.00655133 0.251392 -0.0495559 -0.0129951 0.0796222 
-6.70649e-18 0 0.0796222 -0.0508109 -0.00655133 0.0796222 -0.0495559 -0.0129951 0.0796222 
0.0502867 -0.00979334 0.251392 0.0511262 -0.00328241 0.0796222 0.0502867 -0.00979334 0.0796222 
0.0511262 -0.00328241 0.0796222 -6.70649e-18 0 0.0796222 0.0502867 -0.00979334 0.0796222 
0.0511262 -0.00328241 0.251392 0.0511262 -0.00328241 0.0796222 0.0502867 -0.00979334 0.251392 
-0.0512315 -1.25481e-17 0.251392 -0.0508109 -0.00655133 0.251392 -0.0508109 -0.00655133 0.0796222 
-0.0512315 -1.25481e-17 0.0796222 -0.0512315 -1.25481e-17 0.251392 -0.0508109 -0.00655133 0.0796222 
-6.70649e-18 0 0.0796222 -0.0512315 -1.25481e-17 0.0796222 -0.0508109 -0.00655133 0.0796222 
0.0511262 -0.00328241 0.251392 0.0511262 0.00328241 0.0796222 0.0511262 -0.00328241 0.0796222 
0.0511262 0.00328241 0.0796222 -6.70649e-18 0 0.0796222 0.0511262 -0.00328241 0.0796222 
0.0511262 0.00328241 0.251392 0.0511262 0.00328241 0.0796222 0.0511262 -0.00328241 0.251392 
-0.0508109 0.00655133 0.251392 -0.0512315 -1.25481e-17 0.251392 -0.0512315 -1.25481e-17 0.0796222 
-0.0508109 0.00655133 0.0796222 -0.0508109 0.00655133 0.251392 -0.0512315 -1.25481e-17 0.0796222 
-6.70649e-18 0 0.0796222 -0.0508109 0.00655133 0.0796222 -0.0512315 -1.25481e-17 0.0796222 
-0.0474873 0.0192255 0.0796222 -0.0495559 0.0129951 0.0796222 -6.70649e-18 0 0.0796222 
-0.0495559 0.0129951 0.0796222 -0.0508109 0.00655133 0.0796222 -6.70649e-18 0 0.0796222 
-0.0368021 0.0356408 0.0796222 -0.0410576 0.0306421 0.0796222 -6.70649e-18 0 0.0796222 
-0.0410576 0.0306421 0.0796222 -0.0446389 0.0251402 0.0796222 -6.70649e-18 0 0.0796222 
-0.0446389 0.0251402 0.0796222 -0.0474873 0.0192255 0.0796222 -6.70649e-18 0 0.0796222 
-0.0207376 0.0468467 0.0796222 -0.026558 0.0438102 0.0796222 -6.70649e-18 0 0.0796222 
-0.026558 0.0438102 0.0796222 -0.0319423 0.0400544 0.0796222 -6.70649e-18 0 0.0796222 
-0.0319423 0.0400544 0.0796222 -0.0368021 0.0356408 0.0796222 -6.70649e-18 0 0.0796222 
-0.00164205 0.0512051 0.0796222 -0.00817654 0.0505748 0.0796222 -6.70649e-18 0 0.0796222 
-0.00817654 0.0505748 0.0796222 -0.0145768 0.049114 0.0796222 -6.70649e-18 0 0.0796222 
-0.0145768 0.049114 0.0796222 -0.0207376 0.0468467 0.0796222 -6.70649e-18 0 0.0796222 
0.0176936 0.0480791 0.0796222 0.0114001 0.049947 0.0796222 -6.70649e-18 0 0.0796222 
0.0114001 0.049947 0.0796222 0.0049194 0.0509947 0.0796222 -6.70649e-18 0 0.0796222 
0.0049194 0.0509947 0.0796222 -0.00164205 0.0512051 0.0796222 -6.70649e-18 0 0.0796222 
0.034443 0.0379255 0.0796222 0.0293104 0.0420186 0.0796222 -6.70649e-18 0 0.0796222 
0.0293104 0.0420186 0.0796222 0.0236965 0.0454218 0.0796222 -6.70649e-18 0 0.0796222 
0.0236965 0.0454218 0.0796222 0.0176936 0.0480791 0.0796222 -6.70649e-18 0 0.0796222 
0.0461579 0.0222285 0.0796222 0.0429365 0.0279486 0.0796222 -6.70649e-18 0 0.0796222 
0.0429365 0.0279486 0.0796222 0.03901 0.0332097 0.0796222 -6.70649e-18 0 0.0796222 
0.03901 0.0332097 0.0796222 0.034443 0.0379255 0.0796222 -6.70649e-18 0 0.0796222 
0.0511262 0.00328241 0.0796222 0.0502867 0.00979334 0.0796222 -6.70649e-18 0 0.0796222 
0.0502867 0.00979334 0.0796222 0.0486215 0.0161435 0.0796222 -6.70649e-18 0 0.0796222 
0.0486215 0.0161435 0.0796222 0.0461579 0.0222285 0.0796222 -6.70649e-18 0 0.0796222 
0.0511262 0.00328241 0.251392 0.0502867 0.00979334 0.0796222 0.0511262 0.00328241 0.0796222 
0.0502867 0.00979334 0.251392 0.0502867 0.00979334 0.0796222 0.0511262 0.00328241 0.251392 
-0.0495559 0.0129951 0.251392 -0.0508109 0.00655133 0.251392 -0.0508109 0.00655133 0.0796222 
-0.0495559 0.0129951 0.0796222 -0.0495559 0.0129951 0.251392 -0.0508109 0.00655133 0.0796222 
0.0502867 0.00979334 0.251392 0.0486215 0.0161435 0.0796222 0.0502867 0.00979334 0.0796222 
0.0486215 0.0161435 0.251392 0.0486215 0.0161435 0.0796222 0.0502867 0.00979334 0.251392 
-0.0474873 0.0192255 0.251392 -0.0495559 0.0129951 0.251392 -0.0495559 0.0129951 0.0796222 
-0.0474873 0.0192255 0.0796222 -0.0474873 0.0192255 0.251392 -0.0495559 0.0129951 0.0796222 
0.0486215 0.0161435 0.251392 0.0461579 0.0222285 0.0796222 0.0486215 0.0161435 0.0796222 
0.0461579 0.0222285 0.251392 0.0461579 0.0222285 0.0796222 0.0486215 0.0161435 0.251392 
-0.0446389 0.0251402 0.251392 -0.0474873 0.0192255 0.251392 -0.0474873 0.0192255 0.0796222 
-0.0446389 0.0251402 0.0796222 -0.0446389 0.0251402 0.251392 -0.0474873 0.0192255 0.0796222 
0.0461579 0.0222285 0.251392 0.0429365 0.0279486 0.0796222 0.0461579 0.0222285 0.0796222 
0.0429365 0.0279486 0.251392 0.0429365 0.0279486 0.0796222 0.0461579 0.0222285 0.251392 
-0.0410576 0.0306421 0.251392 -0.0446389 0.0251402 0.251392 -0.0446389 0.0251402 0.0796222 
-0.0410576 0.0306421 0.0796222 -0.0410576 0.0306421 0.251392 -0.0446389 0.0251402 0.0796222 
0.0429365 0.0279486 0.251392 0.03901 0.0332097 0.0796222 0.0429365 0.0279486 0.0796222 
0.03901 0.0332097 0.251392 0.03901 0.0332097 0.0796222 0.0429365 0.0279486 0.251392 
-0.0368021 0.0356408 0.251392 -0.0410576 0.0306421 0.251392 -0.0410576 0.0306421 0.0796222 
-0.0368021 0.0356408 0.0796222 -0.0368021 0.0356408 0.251392 -0.0410576 0.0306421 0.0796222 
0.03901 0.0332097 0.251392 0.034443 0.0379255 0.0796222 0.03901 0.0332097 0.0796222 
0.034443 0.0379255 0.251392 0.034443 0.0379255 0.0796222 0.03901 0.0332097 0.251392 
-0.0319423 0.0400544 0.251392 -0.0368021 0.0356408 0.251392 -0.0368021 0.0356408 0.0796222 
-0.0319423 0.0400544 0.0796222 -0.0319423 0.0400544 0.251392 -0.0368021 0.0356408 0.0796222 
0.034443 0.0379255 0.251392 0.0293104 0.0420186 0.0796222 0.034443 0.0379255 0.0796222 
0.0293104 0.0420186 0.251392 0.0293104 0.0420186 0.0796222 0.034443 0.0379255 0.251392 
-0.026558 0.0438102 0.251392 -0.0319423 0.0400544 0.251392 -0.0319423 0.0400544 0.0796222 
-0.026558 0.0438102 0.0796222 -0.026558 0.0438102 0.251392 -0.0319423 0.0400544 0.0796222 
0.0293104 0.0420186 0.251392 0.0236965 0.0454218 0.0796222 0.0293104 0.0420186 0.0796222 
0.0236965 0.0454218 0.251392 0.0236965 0.0454218 0.0796222 0.0293104 0.0420186 0.251392 
-0.0207376 0.0468467 0.251392 -0.026558 0.0438102 0.251392 -0.026558 0.0438102 0.0796222 
-0.0207376 0.0468467 0.0796222 -0.0207376 0.0468467 0.251392 -0.026558 0.0438102 0.0796222 
0.0236965 0.0454218 0.251392 0.0176936 0.0480791 0.0796222 0.0236965 0.0454218 0.0796222 
0.0176936 0.0480791 0.251392 0.0176936 0.0480791 0.0796222 0.0236965 0.0454218 0.251392 
-0.0145768 0.049114 0.251392 -0.0207376 0.0468467 0.251392 -0.0207376 0.0468467 0.0796222 
-0.0145768 0.049114 0.0796222 -0.0145768 0.049114 0.251392 -0.0207376 0.0468467 0.0796222 
0.0176936 0.0480791 0.251392 0.0114001 0.049947 0.0796222 0.0176936 0.0480791 0.0796222 
0.0114001 0.049947 0.251392 0.0114001 0.049947 0.0796222 0.0176936 0.0480791 0.251392 
-0.00817654 0.0505748 0.251392 -0.0145768 0.049114 0.251392 -0.0145768 0.049114 0.0796222 
-0.00817654 0.0505748 0.0796222 -0.00817654 0.0505748 0.251392 -0.0145768 0.049114 0.0796222 
0.0114001 0.049947 0.251392 0.0049194 0.0509947 0.0796222 0.0114001 0.049947 0.0796222 
0.0049194 0.0509947 0.251392 0.0049194 0.0509947 0.0796222 0.0114001 0.049947 0.251392 
-0.00164205 0.0512051 0.251392 -0.00817654 0.0505748 0.251392 -0.00817654 0.0505748 0.0796222 
-0.00164205 0.0512051 0.0796222 -0.00164205 0.0512051 0.251392 -0.00817654 0.0505748 0.0796222 
0.0049194 0.0509947 0.251392 -0.00164205 0.0512051 0.0796222 0.0049194 0.0509947 0.0796222 
-0.00164205 0.0512051 0.251392 -0.00164205 0.0512051 0.0796222 0.0049194 0.0509947 0.251392 

POLYGONS 147 588
3 0 1 2 
3 3 4 5 
3 6 7 8 
3 9 10 11 
3 12 13 14 
3 15 16 17 
3 18 19 20 
3 21 22 23 
3 24 25 26 
3 27 28 29 
3 30 31 32 
3 33 34 35 
3 36 37 38 
3 39 40 41 
3 42 43 44 
3 45 46 47 
3 48 49 50 
3 51 52 53 
3 54 55 56 
3 57 58 59 
3 60 61 62 
3 63 64 65 
3 66 67 68 
3 69 70 71 
3 72 73 74 
3 75 76 77 
3 78 79 80 
3 81 82 83 
3 84 85 86 
3 87 88 89 
3 90 91 92 
3 93 94 95 
3 96 97 98 
3 99 100 101 
3 102 103 104 
3 105 106 107 
3 108 109 110 
3 111 112 113 
3 114 115 116 
3 117 118 119 
3 120 121 122 
3 123 124 125 
3 126 127 128 
3 129 130 131 
3 132 133 134 
3 135 136 137 
3 138 139 140 
3 141 142 143 
3 144 145 146 
3 147 148 149 
3 150 151 152 
3 153 154 155 
3 156 157 158 
3 159 160 161 
3 162 163 164 
3 165 166 167 
3 168 169 170 
3 171 172 173 
3 174 175 176 
3 177 178 179 
3 180 181 182 
3 183 184 185 
3 186 187 188 
3 189 190 191 
3 192 193 194 
3 195 196 197 
3 198 199 200 
3 201 202 203 
3 204 205 206 
3 207 208 209 
3 210 211 212 
3 213 214 215 
3 216 217 218 
3 219 220 221 
3 222 223 224 
3 225 226 227 
3 228 229 230 
3 231 232 233 
3 234 235 236 
3 237 238 239 
3 240 241 242 
3 243 244 245 
3 246 247 248 
3 249 250 251 
3 252 253 254 
3 255 256 257 
3 258 259 260 
3 261 262 263 
3 264 265 266 
3 267 268 269 
3 270 271 272 
3 273 274 275 
3 276 277 278 
3 279 280 281 
3 282 283 284 
3 285 286 287 
3 288 289 290 
3 291 292 293 
3 294 295 296 
3 297 298 299 
3 300 301 302 
3 303 304 305 
3 306 307 308 
3 309 310 311 
3 312 313 314 
3 315 316 317 
3 318 319 320 
3 321 322 323 
3 324 325 326 
3 327 328 329 
3 330 331 332 
3 333 334 335 
3 336 337 338 
3 339 340 341 
3 342 343 344 
3 345 346 347 
3 348 349 350 
3 351 352 353 
3 354 355 356 
3 357 358 359 
3 360 361 362 
3 363 364 365 
3 366 367 368 
3 369 370 371 
3 372 373 374 
3 375 376 377 
3 378 379 380 
3 381 382 383 
3 384 385 386 
3 387 388 389 
3 390 391 392 
3 393 394 395 
3 396 397 398 
3 399 400 401 
3 402 403 404 
3 405 406 407 
3 408 409 410 
3 411 412 413 
3 414 415 416 
3 417 418 419 
3 420 421 422 
3 423 424 425 
3 426 427 428 
3 429 430 431 
3 432 433 434 
3 435 436 437 
3 438 439 440 

CELL_DATA 147
FIELD FieldData 3
normal_stress_average 1 147 double
3.81383 0 0 44.1897 62.0666 0 0 277.201 0 
0 12.6783 39.1354 0 97.9161 0 0.0345098 8.08271 23.6561 
0 16.5987 0 0 0 19.6241 0 785.728 0 
0 0 47.8631 0 37.2034 0 0 0 14.9625 
0.118292 30.541 0 0 0 168.736 0 43.1568 0 
0 0 40.528 0 81.0772 0 0 2.35712 24.1557 
0 10.8378 0 0 0 110.701 0 127.371 0 
0 0.472086 29.3417 0.0967078 52.1131 0 0 0 28.4585 
-0 186.672 -0 0 0.128969 53.6419 17.3921 30.3018 43.0631 
58.8459 39.5882 630.202 102.17 30.4687 8.7582 43.4379 66.4563 37.1006 
23.3367 56.9869 21.1117 42.6708 12.1559 47.1871 390.226 26.0109 38.7519 
29.8525 20.9188 -0 -0 0 0 -0 -0 0 
0 2.67062 -0 0 0 0 -0 0 51.921 
2.98328 -0 0 1.32261 1.15052 -0 0 7.82233 0 
-0 0 0 0.728081 -0 0 0 0 -0 
0 1.28823 0.515646 -0 0 0 0 -0 0 
0 0 -0 
shear_stress_average 1 147 double
1.80249 0 0 8.56916 8.37938 0 0 50.3764 0 
0 2.74909 22.3843 0 15.4496 0 0.0173376 2.6389 14.5032 
0 3.22154 0 0 0 0.867574 0 217.521 0 
0 0 11.6697 0 0.831225 0 0 0 0.626173 
0.0591459 0.709645 0 0 0 3.99456 0 1.65189 0 
0 0 6.57409 0 3.60012 0 0 0.4888 5.60208 
0 3.13239 0 0 0 9.75397 0 24.7028 0 
0 0.236043 2.93004 0.0483539 5.25876 0 0 0 1.94621 
0 12.4859 0 0 0.0644845 4.84558 1.48046 5.77281 7.4397 
4.62956 7.23328 49.8038 23.5399 5.10394 0.451112 4.42665 24.6928 12.3076 
1.09513 21.2861 1.72675 4.27897 0.748243 37.3957 37.5745 7.30188 1.45581 
3.57659 4.4595 0 0 0 0 0 0 0 
0 0.479953 0 0 0 0 0 0 25.8837 
2.00394 0 0 0.661306 0.57526 0 0 3.48025 0 
0 0 0 0.191234 0 0 0 0 0 
0 0.589661 0.257823 0 0 0 0 0 0 
0 0 0 
wear 1 147 double
0.0548938 0 0.037843 1.15225 1.07799 9.02639e-05 0.100586 1.49147 0 
0.000555615 0.0256513 0.887281 0.141568 1.49992 0 3.0546e-05 0.0290657 0.579106 
0.0296203 1.17566 0.00017152 0.0331666 0.00338427 1.29298 0.0375036 1.27713 0 
0 0.0248855 1.07397 0.0534784 0.646337 0.00015243 0.000598185 0.0591541 1.0902 
0.0120299 1.20256 1.22062e-05 0 0.0434071 0.61067 0.0183805 1.36581 0.00100689 
0 0.0448961 1.03748 0.0459198 1.18937 0 0 0.0972004 0.809676 
0.0165152 1.40719 0.00478043 0 0.0116138 0.852326 0.0185444 1.0117 0 
0.000485188 0.00242898 0.890247 0.0503182 1.71189 0 0 0.0220249 1.16864 
0.0716835 1.15936 5.96131e-05 0 0.0473582 1.04682 0.870555 1.01982 1.49637 
1.86499 1.34214 1.74781 0.529148 1.07941 1.76865 1.7956 1.42003 0.905473 
0.975556 1.48176 1.22376 1.19457 1.67916 1.00931 1.19767 1.24782 0.675788 
1.20922 1.43548 0.0154263 0 0 0.0427434 0.0552777 0 0.00208798 
0.0313071 0.0448152 0.00133605 0 0.023447 0.0514419 0 0 0.0673586 
0.0418519 0.000239265 0.000372141 0.107836 0.0122691 0 0.00544443 0.0157097 0.0312678 
0 0 0.0030215 0.00797387 7.74993e-06 0 0.0327589 0.0587059 0 
0.00558967 0.012982 0.0117212 0 0 0.0662317 0.0241171 0 0 
0.0216968 0.0216985 0.00763918 
