# vtk DataFile Version 4.0
Generated by LIGGGHTS
ASCII
DATASET POLYDATA
POINTS 441 float
-0.00164205 -0.0512051 0.251392 0.0049194 -0.0509947 0.0796222 -0.00164205 -0.0512051 0.0796222 
-0.00817654 -0.0505748 0.251392 -0.00164205 -0.0512051 0.251392 -0.00164205 -0.0512051 0.0796222 
-0.00817654 -0.0505748 0.0796222 -0.00817654 -0.0505748 0.251392 -0.00164205 -0.0512051 0.0796222 
-6.70649e-18 0 0.0796222 -0.00817654 -0.0505748 0.0796222 -0.00164205 -0.0512051 0.0796222 
0.0049194 -0.0509947 0.0796222 -6.70649e-18 0 0.0796222 -0.00164205 -0.0512051 0.0796222 
0.0049194 -0.0509947 0.251392 0.0049194 -0.0509947 0.0796222 -0.00164205 -0.0512051 0.251392 
0.0049194 -0.0509947 0.251392 0.0114001 -0.049947 0.0796222 0.0049194 -0.0509947 0.0796222 
0.0114001 -0.049947 0.0796222 -6.70649e-18 0 0.0796222 0.0049194 -0.0509947 0.0796222 
0.0114001 -0.049947 0.251392 0.0114001 -0.049947 0.0796222 0.0049194 -0.0509947 0.251392 
-0.0145768 -0.049114 0.251392 -0.00817654 -0.0505748 0.251392 -0.00817654 -0.0505748 0.0796222 
-0.0145768 -0.049114 0.0796222 -0.0145768 -0.049114 0.251392 -0.00817654 -0.0505748 0.0796222 
-6.70649e-18 0 0.0796222 -0.0145768 -0.049114 0.0796222 -0.00817654 -0.0505748 0.0796222 
0.0114001 -0.049947 0.251392 0.0176936 -0.0480791 0.0796222 0.0114001 -0.049947 0.0796222 
0.0176936 -0.0480791 0.0796222 -6.70649e-18 0 0.0796222 0.0114001 -0.049947 0.0796222 
0.0176936 -0.0480791 0.251392 0.0176936 -0.0480791 0.0796222 0.0114001 -0.049947 0.251392 
-0.0207376 -0.0468467 0.251392 -0.0145768 -0.049114 0.251392 -0.0145768 -0.049114 0.0796222 
-0.0207376 -0.0468467 0.0796222 -0.0207376 -0.0468467 0.251392 -0.0145768 -0.049114 0.0796222 
-6.70649e-18 0 0.0796222 -0.0207376 -0.0468467 0.0796222 -0.0145768 -0.049114 0.0796222 
0.0176936 -0.0480791 0.251392 0.0236965 -0.0454218 0.0796222 0.0176936 -0.0480791 0.0796222 
0.0236965 -0.0454218 0.0796222 -6.70649e-18 0 0.0796222 0.0176936 -0.0480791 0.0796222 
0.0236965 -0.0454218 0.251392 0.0236965 -0.0454218 0.0796222 0.0176936 -0.0480791 0.251392 
-0.026558 -0.0438102 0.251392 -0.0207376 -0.0468467 0.251392 -0.0207376 -0.0468467 0.0796222 
-0.026558 -0.0438102 0.0796222 -0.026558 -0.0438102 0.251392 -0.0207376 -0.0468467 0.0796222 
-6.70649e-18 0 0.0796222 -0.026558 -0.0438102 0.0796222 -0.0207376 -0.0468467 0.0796222 
0.0236965 -0.0454218 0.251392 0.0293104 -0.0420186 0.0796222 0.0236965 -0.0454218 0.0796222 
0.0293104 -0.0420186 0.0796222 -6.70649e-18 0 0.0796222 0.0236965 -0.0454218 0.0796222 
0.0293104 -0.0420186 0.251392 0.0293104 -0.0420186 0.0796222 0.0236965 -0.0454218 0.251392 
-0.0319423 -0.0400544 0.251392 -0.026558 -0.0438102 0.251392 -0.026558 -0.0438102 0.0796222 
-0.0319423 -0.0400544 0.0796222 -0.0319423 -0.0400544 0.251392 -0.026558 -0.0438102 0.0796222 
-6.70649e-18 0 0.0796222 -0.0319423 -0.0400544 0.0796222 -0.026558 -0.0438102 0.0796222 
0.0293104 -0.0420186 0.251392 0.034443 -0.0379255 0.0796222 0.0293104 -0.0420186 0.0796222 
0.034443 -0.0379255 0.0796222 -6.70649e-18 0 0.0796222 0.0293104 -0.0420186 0.0796222 
0.034443 -0.0379255 0.251392 0.034443 -0.0379255 0.0796222 0.0293104 -0.0420186 0.251392 
-0.0368021 -0.0356408 0.251392 -0.0319423 -0.0400544 0.251392 -0.0319423 -0.0400544 0.0796222 
-0.0368021 -0.0356408 0.0796222 -0.0368021 -0.0356408 0.251392 -0.0319423 -0.0400544 0.0796222 
-6.70649e-18 0 0.0796222 -0.0368021 -0.0356408 0.0796222 -0.0319423 -0.0400544 0.0796222 
0.034443 -0.0379255 0.251392 0.03901 -0.0332097 0.0796222 0.034443 -0.0379255 0.0796222 
0.03901 -0.0332097 0.0796222 -6.70649e-18 0 0.0796222 0.034443 -0.0379255 0.0796222 
0.03901 -0.0332097 0.251392 0.03901 -0.0332097 0.0796222 0.034443 -0.0379255 0.251392 
-0.0410576 -0.0306421 0.251392 -0.0368021 -0.0356408 0.251392 -0.0368021 -0.0356408 0.0796222 
-0.0410576 -0.0306421 0.0796222 -0.0410576 -0.0306421 0.251392 -0.0368021 -0.0356408 0.0796222 
-6.70649e-18 0 0.0796222 -0.0410576 -0.0306421 0.0796222 -0.0368021 -0.0356408 0.0796222 
0.03901 -0.0332097 0.251392 0.0429365 -0.0279486 0.0796222 0.03901 -0.0332097 0.0796222 
0.0429365 -0.0279486 0.0796222 -6.70649e-18 0 0.0796222 0.03901 -0.0332097 0.0796222 
0.0429365 -0.0279486 0.251392 0.0429365 -0.0279486 0.0796222 0.03901 -0.0332097 0.251392 
-0.0446389 -0.0251402 0.251392 -0.0410576 -0.0306421 0.251392 -0.0410576 -0.0306421 0.0796222 
-0.0446389 -0.0251402 0.0796222 -0.0446389 -0.0251402 0.251392 -0.0410576 -0.0306421 0.0796222 
-6.70649e-18 0 0.0796222 -0.0446389 -0.0251402 0.0796222 -0.0410576 -0.0306421 0.0796222 
0.0429365 -0.0279486 0.251392 0.0461579 -0.0222285 0.0796222 0.0429365 -0.0279486 0.0796222 
0.0461579 -0.0222285 0.0796222 -6.70649e-18 0 0.0796222 0.0429365 -0.0279486 0.0796222 
0.0461579 -0.0222285 0.251392 0.0461579 -0.0222285 0.0796222 0.0429365 -0.0279486 0.251392 
-0.0474873 -0.0192255 0.251392 -0.0446389 -0.0251402 0.251392 -0.0446389 -0.0251402 0.0796222 
-0.0474873 -0.0192255 0.0796222 -0.0474873 -0.0192255 0.251392 -0.0446389 -0.0251402 0.0796222 
-6.70649e-18 0 0.0796222 -0.0474873 -0.0192255 0.0796222 -0.0446389 -0.0251402 0.0796222 
0.0461579 -0.0222285 0.251392 0.0486215 -0.0161435 0.0796222 0.0461579 -0.0222285 0.0796222 
0.0486215 -0.0161435 0.0796222 -6.70649e-18 0 0.0796222 0.0461579 -0.0222285 0.0796222 
0.0486215 -0.0161435 0.251392 0.0486215 -0.0161435 0.0796222 0.0461579 -0.0222285 0.251392 
-0.0495559 -0.0129951 0.251392 -0.0474873 -0.0192255 0.251392 -0.0474873 -0.0192255 0.0796222 
-0.0495559 -0.0129951 0.0796222 -0.0495559 -0.0129951 0.251392 -0.0474873 -0.0192255 0.0796222 
-6.70649e-18 0 0.0796222 -0.0495559 -0.0129951 0.0796222 -0.0474873 -0.0192255 0.0796222 
0.0486215 -0.0161435 0.251392 0.0502867 -0.00979334 0.0796222 0.0486215 -0.0161435 0.0796222 
0.0502867 -0.00979334 0.0796222 -6.70649e-18 0 0.0796222 0.0486215 -0.0161435 0.0796222 
0.0502867 -0.00979334 0.251392 0.0502867 -0.00979334 0.0796222 0.0486215 -0.0161435 0.251392 
-0.0508109 -0.00655133 0.251392 -0.0495559 -0.0129951 0.251392 -0.0495559 -0.0129951 0.0796222 
-0.0508109 -0.00655133 0.0796222 -0.0508109 -0.00655133 0.251392 -0.0495559 -0.0129951 0.0796222 
-6.70649e-18 0 0.0796222 -0.0508109 -0.00655133 0.0796222 -0.0495559 -0.0129951 0.0796222 
0.0502867 -0.00979334 0.251392 0.0511262 -0.00328241 0.0796222 0.0502867 -0.00979334 0.0796222 
0.0511262 -0.00328241 0.0796222 -6.70649e-18 0 0.0796222 0.0502867 -0.00979334 0.0796222 
0.0511262 -0.00328241 0.251392 0.0511262 -0.00328241 0.0796222 0.0502867 -0.00979334 0.251392 
-0.0512315 -1.25481e-17 0.251392 -0.0508109 -0.00655133 0.251392 -0.0508109 -0.00655133 0.0796222 
-0.0512315 -1.25481e-17 0.0796222 -0.0512315 -1.25481e-17 0.251392 -0.0508109 -0.00655133 0.0796222 
-6.70649e-18 0 0.0796222 -0.0512315 -1.25481e-17 0.0796222 -0.0508109 -0.00655133 0.0796222 
0.0511262 -0.00328241 0.251392 0.0511262 0.00328241 0.0796222 0.0511262 -0.00328241 0.0796222 
0.0511262 0.00328241 0.0796222 -6.70649e-18 0 0.0796222 0.0511262 -0.00328241 0.0796222 
0.0511262 0.00328241 0.251392 0.0511262 0.00328241 0.0796222 0.0511262 -0.00328241 0.251392 
-0.0508109 0.00655133 0.251392 -0.0512315 -1.25481e-17 0.251392 -0.0512315 -1.25481e-17 0.0796222 
-0.0508109 0.00655133 0.0796222 -0.0508109 0.00655133 0.251392 -0.0512315 -1.25481e-17 0.0796222 
-6.70649e-18 0 0.0796222 -0.0508109 0.00655133 0.0796222 -0.0512315 -1.25481e-17 0.0796222 
-0.0474873 0.0192255 0.0796222 -0.0495559 0.0129951 0.0796222 -6.70649e-18 0 0.0796222 
-0.0495559 0.0129951 0.0796222 -0.0508109 0.00655133 0.0796222 -6.70649e-18 0 0.0796222 
-0.0368021 0.0356408 0.0796222 -0.0410576 0.0306421 0.0796222 -6.70649e-18 0 0.0796222 
-0.0410576 0.0306421 0.0796222 -0.0446389 0.0251402 0.0796222 -6.70649e-18 0 0.0796222 
-0.0446389 0.0251402 0.0796222 -0.0474873 0.0192255 0.0796222 -6.70649e-18 0 0.0796222 
-0.0207376 0.0468467 0.0796222 -0.026558 0.0438102 0.0796222 -6.70649e-18 0 0.0796222 
-0.026558 0.0438102 0.0796222 -0.0319423 0.0400544 0.0796222 -6.70649e-18 0 0.0796222 
-0.0319423 0.0400544 0.0796222 -0.0368021 0.0356408 0.0796222 -6.70649e-18 0 0.0796222 
-0.00164205 0.0512051 0.0796222 -0.00817654 0.0505748 0.0796222 -6.70649e-18 0 0.0796222 
-0.00817654 0.0505748 0.0796222 -0.0145768 0.049114 0.0796222 -6.70649e-18 0 0.0796222 
-0.0145768 0.049114 0.0796222 -0.0207376 0.0468467 0.0796222 -6.70649e-18 0 0.0796222 
0.0176936 0.0480791 0.0796222 0.0114001 0.049947 0.0796222 -6.70649e-18 0 0.0796222 
0.0114001 0.049947 0.0796222 0.0049194 0.0509947 0.0796222 -6.70649e-18 0 0.0796222 
0.0049194 0.0509947 0.0796222 -0.00164205 0.0512051 0.0796222 -6.70649e-18 0 0.0796222 
0.034443 0.0379255 0.0796222 0.0293104 0.0420186 0.0796222 -6.70649e-18 0 0.0796222 
0.0293104 0.0420186 0.0796222 0.0236965 0.0454218 0.0796222 -6.70649e-18 0 0.0796222 
0.0236965 0.0454218 0.0796222 0.0176936 0.0480791 0.0796222 -6.70649e-18 0 0.0796222 
0.0461579 0.0222285 0.0796222 0.0429365 0.0279486 0.0796222 -6.70649e-18 0 0.0796222 
0.0429365 0.0279486 0.0796222 0.03901 0.0332097 0.0796222 -6.70649e-18 0 0.0796222 
0.03901 0.0332097 0.0796222 0.034443 0.0379255 0.0796222 -6.70649e-18 0 0.0796222 
0.0511262 0.00328241 0.0796222 0.0502867 0.00979334 0.0796222 -6.70649e-18 0 0.0796222 
0.0502867 0.00979334 0.0796222 0.0486215 0.0161435 0.0796222 -6.70649e-18 0 0.0796222 
0.0486215 0.0161435 0.0796222 0.0461579 0.0222285 0.0796222 -6.70649e-18 0 0.0796222 
0.0511262 0.00328241 0.251392 0.0502867 0.00979334 0.0796222 0.0511262 0.00328241 0.0796222 
0.0502867 0.00979334 0.251392 0.0502867 0.00979334 0.0796222 0.0511262 0.00328241 0.251392 
-0.0495559 0.0129951 0.251392 -0.0508109 0.00655133 0.251392 -0.0508109 0.00655133 0.0796222 
-0.0495559 0.0129951 0.0796222 -0.0495559 0.0129951 0.251392 -0.0508109 0.00655133 0.0796222 
0.0502867 0.00979334 0.251392 0.0486215 0.0161435 0.0796222 0.0502867 0.00979334 0.0796222 
0.0486215 0.0161435 0.251392 0.0486215 0.0161435 0.0796222 0.0502867 0.00979334 0.251392 
-0.0474873 0.0192255 0.251392 -0.0495559 0.0129951 0.251392 -0.0495559 0.0129951 0.0796222 
-0.0474873 0.0192255 0.0796222 -0.0474873 0.0192255 0.251392 -0.0495559 0.0129951 0.0796222 
0.0486215 0.0161435 0.251392 0.0461579 0.0222285 0.0796222 0.0486215 0.0161435 0.0796222 
0.0461579 0.0222285 0.251392 0.0461579 0.0222285 0.0796222 0.0486215 0.0161435 0.251392 
-0.0446389 0.0251402 0.251392 -0.0474873 0.0192255 0.251392 -0.0474873 0.0192255 0.0796222 
-0.0446389 0.0251402 0.0796222 -0.0446389 0.0251402 0.251392 -0.0474873 0.0192255 0.0796222 
0.0461579 0.0222285 0.251392 0.0429365 0.0279486 0.0796222 0.0461579 0.0222285 0.0796222 
0.0429365 0.0279486 0.251392 0.0429365 0.0279486 0.0796222 0.0461579 0.0222285 0.251392 
-0.0410576 0.0306421 0.251392 -0.0446389 0.0251402 0.251392 -0.0446389 0.0251402 0.0796222 
-0.0410576 0.0306421 0.0796222 -0.0410576 0.0306421 0.251392 -0.0446389 0.0251402 0.0796222 
0.0429365 0.0279486 0.251392 0.03901 0.0332097 0.0796222 0.0429365 0.0279486 0.0796222 
0.03901 0.0332097 0.251392 0.03901 0.0332097 0.0796222 0.0429365 0.0279486 0.251392 
-0.0368021 0.0356408 0.251392 -0.0410576 0.0306421 0.251392 -0.0410576 0.0306421 0.0796222 
-0.0368021 0.0356408 0.0796222 -0.0368021 0.0356408 0.251392 -0.0410576 0.0306421 0.0796222 
0.03901 0.0332097 0.251392 0.034443 0.0379255 0.0796222 0.03901 0.0332097 0.0796222 
0.034443 0.0379255 0.251392 0.034443 0.0379255 0.0796222 0.03901 0.0332097 0.251392 
-0.0319423 0.0400544 0.251392 -0.0368021 0.0356408 0.251392 -0.0368021 0.0356408 0.0796222 
-0.0319423 0.0400544 0.0796222 -0.0319423 0.0400544 0.251392 -0.0368021 0.0356408 0.0796222 
0.034443 0.0379255 0.251392 0.0293104 0.0420186 0.0796222 0.034443 0.0379255 0.0796222 
0.0293104 0.0420186 0.251392 0.0293104 0.0420186 0.0796222 0.034443 0.0379255 0.251392 
-0.026558 0.0438102 0.251392 -0.0319423 0.0400544 0.251392 -0.0319423 0.0400544 0.0796222 
-0.026558 0.0438102 0.0796222 -0.026558 0.0438102 0.251392 -0.0319423 0.0400544 0.0796222 
0.0293104 0.0420186 0.251392 0.0236965 0.0454218 0.0796222 0.0293104 0.0420186 0.0796222 
0.0236965 0.0454218 0.251392 0.0236965 0.0454218 0.0796222 0.0293104 0.0420186 0.251392 
-0.0207376 0.0468467 0.251392 -0.026558 0.0438102 0.251392 -0.026558 0.0438102 0.0796222 
-0.0207376 0.0468467 0.0796222 -0.0207376 0.0468467 0.251392 -0.026558 0.0438102 0.0796222 
0.0236965 0.0454218 0.251392 0.0176936 0.0480791 0.0796222 0.0236965 0.0454218 0.0796222 
0.0176936 0.0480791 0.251392 0.0176936 0.0480791 0.0796222 0.0236965 0.0454218 0.251392 
-0.0145768 0.049114 0.251392 -0.0207376 0.0468467 0.251392 -0.0207376 0.0468467 0.0796222 
-0.0145768 0.049114 0.0796222 -0.0145768 0.049114 0.251392 -0.0207376 0.0468467 0.0796222 
0.0176936 0.0480791 0.251392 0.0114001 0.049947 0.0796222 0.0176936 0.0480791 0.0796222 
0.0114001 0.049947 0.251392 0.0114001 0.049947 0.0796222 0.0176936 0.0480791 0.251392 
-0.00817654 0.0505748 0.251392 -0.0145768 0.049114 0.251392 -0.0145768 0.049114 0.0796222 
-0.00817654 0.0505748 0.0796222 -0.00817654 0.0505748 0.251392 -0.0145768 0.049114 0.0796222 
0.0114001 0.049947 0.251392 0.0049194 0.0509947 0.0796222 0.0114001 0.049947 0.0796222 
0.0049194 0.0509947 0.251392 0.0049194 0.0509947 0.0796222 0.0114001 0.049947 0.251392 
-0.00164205 0.0512051 0.251392 -0.00817654 0.0505748 0.251392 -0.00817654 0.0505748 0.0796222 
-0.00164205 0.0512051 0.0796222 -0.00164205 0.0512051 0.251392 -0.00817654 0.0505748 0.0796222 
0.0049194 0.0509947 0.251392 -0.00164205 0.0512051 0.0796222 0.0049194 0.0509947 0.0796222 
-0.00164205 0.0512051 0.251392 -0.00164205 0.0512051 0.0796222 0.0049194 0.0509947 0.251392 

POLYGONS 147 588
3 0 1 2 
3 3 4 5 
3 6 7 8 
3 9 10 11 
3 12 13 14 
3 15 16 17 
3 18 19 20 
3 21 22 23 
3 24 25 26 
3 27 28 29 
3 30 31 32 
3 33 34 35 
3 36 37 38 
3 39 40 41 
3 42 43 44 
3 45 46 47 
3 48 49 50 
3 51 52 53 
3 54 55 56 
3 57 58 59 
3 60 61 62 
3 63 64 65 
3 66 67 68 
3 69 70 71 
3 72 73 74 
3 75 76 77 
3 78 79 80 
3 81 82 83 
3 84 85 86 
3 87 88 89 
3 90 91 92 
3 93 94 95 
3 96 97 98 
3 99 100 101 
3 102 103 104 
3 105 106 107 
3 108 109 110 
3 111 112 113 
3 114 115 116 
3 117 118 119 
3 120 121 122 
3 123 124 125 
3 126 127 128 
3 129 130 131 
3 132 133 134 
3 135 136 137 
3 138 139 140 
3 141 142 143 
3 144 145 146 
3 147 148 149 
3 150 151 152 
3 153 154 155 
3 156 157 158 
3 159 160 161 
3 162 163 164 
3 165 166 167 
3 168 169 170 
3 171 172 173 
3 174 175 176 
3 177 178 179 
3 180 181 182 
3 183 184 185 
3 186 187 188 
3 189 190 191 
3 192 193 194 
3 195 196 197 
3 198 199 200 
3 201 202 203 
3 204 205 206 
3 207 208 209 
3 210 211 212 
3 213 214 215 
3 216 217 218 
3 219 220 221 
3 222 223 224 
3 225 226 227 
3 228 229 230 
3 231 232 233 
3 234 235 236 
3 237 238 239 
3 240 241 242 
3 243 244 245 
3 246 247 248 
3 249 250 251 
3 252 253 254 
3 255 256 257 
3 258 259 260 
3 261 262 263 
3 264 265 266 
3 267 268 269 
3 270 271 272 
3 273 274 275 
3 276 277 278 
3 279 280 281 
3 282 283 284 
3 285 286 287 
3 288 289 290 
3 291 292 293 
3 294 295 296 
3 297 298 299 
3 300 301 302 
3 303 304 305 
3 306 307 308 
3 309 310 311 
3 312 313 314 
3 315 316 317 
3 318 319 320 
3 321 322 323 
3 324 325 326 
3 327 328 329 
3 330 331 332 
3 333 334 335 
3 336 337 338 
3 339 340 341 
3 342 343 344 
3 345 346 347 
3 348 349 350 
3 351 352 353 
3 354 355 356 
3 357 358 359 
3 360 361 362 
3 363 364 365 
3 366 367 368 
3 369 370 371 
3 372 373 374 
3 375 376 377 
3 378 379 380 
3 381 382 383 
3 384 385 386 
3 387 388 389 
3 390 391 392 
3 393 394 395 
3 396 397 398 
3 399 400 401 
3 402 403 404 
3 405 406 407 
3 408 409 410 
3 411 412 413 
3 414 415 416 
3 417 418 419 
3 420 421 422 
3 423 424 425 
3 426 427 428 
3 429 430 431 
3 432 433 434 
3 435 436 437 
3 438 439 440 

CELL_DATA 147
FIELD FieldData 3
normal_stress_average 1 147 double
0.069661 0 0.378708 48.1865 51.3754 0 4.57188 26.0753 0 
0 0 100.052 2.62013 38.7026 0 0 0.0323018 70.9654 
1.85522 98.4815 0 0 0.337244 63.2264 0 16.612 0 
0 3.539 68.9381 2.20599 291.038 0 0 1.52954 54.5281 
2.18515 42.2086 0 0 0 93.4397 20.478 121.69 0 
0 9.44664 52.8468 0.332593 208.358 0 0 0 165.136 
16.3295 255.528 0 0 0.0870145 109.767 0 63.1932 0 
0 0 130.97 0 51.9759 0 0 0 255.939 
1.67971 30.9556 -0 0 0.11182 49.3157 168.127 67.5264 179.508 
654.654 109.269 73.6594 101.247 177.925 186.522 64.423 145.863 68.8869 
267.395 94.983 108.167 82.4487 121.133 63.3547 106.757 55.0535 86.5421 
91.2817 39.702 10.4466 -0 0 0 1.53405 -0 0 
0 0.0831538 -0 0 0 0 -0 0 0.545652 
0.876239 -0 0 0 0 -0 0 0 14.477 
-0 0 0 5.20919 -0 0 0 5.42489 -0 
0 0 4.11047 -0 0 0 14.6806 -0 0 
0 0.0280129 -0 
shear_stress_average 1 147 double
0.0348305 0 0.189354 4.42835 6.70501 0 1.83447 2.3815 0 
0 0 12.1229 0.513416 7.95433 0 0 0.0161509 11.0581 
0.974627 8.61826 0 0 0.168622 3.03582 0 6.4821 0 
0 1.48439 8.14348 1.10299 70.4703 0 0 0.764772 8.27796 
0.618795 8.01995 0 0 0 4.6774 10.1831 9.15677 0 
0 1.08377 8.98715 0.251662 35.4271 0 0 0 25.685 
8.18002 40.9561 0 0 0.0435073 35.4751 0 18.5463 0 
0 0 35.2848 0 15.0705 0 0 0 77.9955 
0.648605 4.8513 0 0 0.0559098 5.94004 90.7405 25.1781 51.4308 
53.8751 21.8563 3.51147 9.59536 32.383 15.4247 10.6704 16.3304 7.60979 
27.9364 30.1086 14.8132 16.1742 27.5029 11.6473 13.8657 9.1344 23.0052 
12.7922 3.32946 2.31559 0 0 0 0.639967 0 0 
0 0.0415769 0 0 0 0 0 0 0.272826 
0.438119 0 0 0 0 0 0 0 6.98358 
0 0 0 2.60288 0 0 0 2.71586 0 
0 0 2.05549 0 0 0 3.64996 0 0 
0 0.0140065 0 
wear 1 147 double
0.184075 0.000104775 0.0679406 1.64031 1.74162 0.000120005 0.124751 1.78688 0 
0.00322351 0.0403803 1.35859 0.156977 2.16585 0 3.05464e-05 0.0419905 1.26065 
0.0496281 1.62051 0.0019707 0.0382683 0.0194287 1.7099 0.040648 1.93373 0.000125727 
0.00124856 0.0583127 1.53028 0.0663334 1.41358 0.000192776 0.00277581 0.0638096 1.84426 
0.046217 1.86327 0.0193506 0.00933719 0.0459675 0.914112 0.0441266 2.46799 0.00100689 
0 0.0785157 1.50322 0.0749597 1.67283 8.10674e-06 5.30534e-05 0.102675 1.22529 
0.0257523 1.79372 0.00485928 0 0.0196417 1.60642 0.0295086 1.67267 0 
0.000485188 0.0290976 1.53688 0.0693136 2.62619 3.54051e-05 2.66469e-05 0.0507774 1.95542 
0.122351 1.56713 0.000529329 0 0.048976 1.39284 1.57599 1.63122 1.7854 
2.6595 2.11191 2.25822 1.1416 1.47722 2.38516 2.29387 1.82336 1.52538 
1.52784 2.16534 2.02233 2.01667 2.13658 1.68439 1.85739 2.12976 1.18311 
1.65675 2.06284 0.0262119 0 0 0.046089 0.0657337 5.35141e-06 0.00356068 
0.0606287 0.0694264 0.00133605 4.77059e-05 0.044626 0.111091 4.53237e-05 0.00161859 0.0809257 
0.0889341 0.000240469 0.000372141 0.125532 0.0320581 0 0.00629093 0.0208979 0.0462058 
0 0.00107065 0.00672057 0.0383601 4.98272e-05 0 0.0431837 0.0632372 0.000239867 
0.00573882 0.0206435 0.0328743 0 0.000432412 0.0904816 0.0551141 0 0.00475886 
0.0324271 0.0299603 0.00770603 
