# vtk DataFile Version 4.0
Generated by LIGGGHTS
ASCII
DATASET POLYDATA
POINTS 441 float
-0.00164205 -0.0512051 0.251392 0.0049194 -0.0509947 0.0796222 -0.00164205 -0.0512051 0.0796222 
-0.00817654 -0.0505748 0.251392 -0.00164205 -0.0512051 0.251392 -0.00164205 -0.0512051 0.0796222 
-0.00817654 -0.0505748 0.0796222 -0.00817654 -0.0505748 0.251392 -0.00164205 -0.0512051 0.0796222 
-6.70649e-18 0 0.0796222 -0.00817654 -0.0505748 0.0796222 -0.00164205 -0.0512051 0.0796222 
0.0049194 -0.0509947 0.0796222 -6.70649e-18 0 0.0796222 -0.00164205 -0.0512051 0.0796222 
0.0049194 -0.0509947 0.251392 0.0049194 -0.0509947 0.0796222 -0.00164205 -0.0512051 0.251392 
0.0049194 -0.0509947 0.251392 0.0114001 -0.049947 0.0796222 0.0049194 -0.0509947 0.0796222 
0.0114001 -0.049947 0.0796222 -6.70649e-18 0 0.0796222 0.0049194 -0.0509947 0.0796222 
0.0114001 -0.049947 0.251392 0.0114001 -0.049947 0.0796222 0.0049194 -0.0509947 0.251392 
-0.0145768 -0.049114 0.251392 -0.00817654 -0.0505748 0.251392 -0.00817654 -0.0505748 0.0796222 
-0.0145768 -0.049114 0.0796222 -0.0145768 -0.049114 0.251392 -0.00817654 -0.0505748 0.0796222 
-6.70649e-18 0 0.0796222 -0.0145768 -0.049114 0.0796222 -0.00817654 -0.0505748 0.0796222 
0.0114001 -0.049947 0.251392 0.0176936 -0.0480791 0.0796222 0.0114001 -0.049947 0.0796222 
0.0176936 -0.0480791 0.0796222 -6.70649e-18 0 0.0796222 0.0114001 -0.049947 0.0796222 
0.0176936 -0.0480791 0.251392 0.0176936 -0.0480791 0.0796222 0.0114001 -0.049947 0.251392 
-0.0207376 -0.0468467 0.251392 -0.0145768 -0.049114 0.251392 -0.0145768 -0.049114 0.0796222 
-0.0207376 -0.0468467 0.0796222 -0.0207376 -0.0468467 0.251392 -0.0145768 -0.049114 0.0796222 
-6.70649e-18 0 0.0796222 -0.0207376 -0.0468467 0.0796222 -0.0145768 -0.049114 0.0796222 
0.0176936 -0.0480791 0.251392 0.0236965 -0.0454218 0.0796222 0.0176936 -0.0480791 0.0796222 
0.0236965 -0.0454218 0.0796222 -6.70649e-18 0 0.0796222 0.0176936 -0.0480791 0.0796222 
0.0236965 -0.0454218 0.251392 0.0236965 -0.0454218 0.0796222 0.0176936 -0.0480791 0.251392 
-0.026558 -0.0438102 0.251392 -0.0207376 -0.0468467 0.251392 -0.0207376 -0.0468467 0.0796222 
-0.026558 -0.0438102 0.0796222 -0.026558 -0.0438102 0.251392 -0.0207376 -0.0468467 0.0796222 
-6.70649e-18 0 0.0796222 -0.026558 -0.0438102 0.0796222 -0.0207376 -0.0468467 0.0796222 
0.0236965 -0.0454218 0.251392 0.0293104 -0.0420186 0.0796222 0.0236965 -0.0454218 0.0796222 
0.0293104 -0.0420186 0.0796222 -6.70649e-18 0 0.0796222 0.0236965 -0.0454218 0.0796222 
0.0293104 -0.0420186 0.251392 0.0293104 -0.0420186 0.0796222 0.0236965 -0.0454218 0.251392 
-0.0319423 -0.0400544 0.251392 -0.026558 -0.0438102 0.251392 -0.026558 -0.0438102 0.0796222 
-0.0319423 -0.0400544 0.0796222 -0.0319423 -0.0400544 0.251392 -0.026558 -0.0438102 0.0796222 
-6.70649e-18 0 0.0796222 -0.0319423 -0.0400544 0.0796222 -0.026558 -0.0438102 0.0796222 
0.0293104 -0.0420186 0.251392 0.034443 -0.0379255 0.0796222 0.0293104 -0.0420186 0.0796222 
0.034443 -0.0379255 0.0796222 -6.70649e-18 0 0.0796222 0.0293104 -0.0420186 0.0796222 
0.034443 -0.0379255 0.251392 0.034443 -0.0379255 0.0796222 0.0293104 -0.0420186 0.251392 
-0.0368021 -0.0356408 0.251392 -0.0319423 -0.0400544 0.251392 -0.0319423 -0.0400544 0.0796222 
-0.0368021 -0.0356408 0.0796222 -0.0368021 -0.0356408 0.251392 -0.0319423 -0.0400544 0.0796222 
-6.70649e-18 0 0.0796222 -0.0368021 -0.0356408 0.0796222 -0.0319423 -0.0400544 0.0796222 
0.034443 -0.0379255 0.251392 0.03901 -0.0332097 0.0796222 0.034443 -0.0379255 0.0796222 
0.03901 -0.0332097 0.0796222 -6.70649e-18 0 0.0796222 0.034443 -0.0379255 0.0796222 
0.03901 -0.0332097 0.251392 0.03901 -0.0332097 0.0796222 0.034443 -0.0379255 0.251392 
-0.0410576 -0.0306421 0.251392 -0.0368021 -0.0356408 0.251392 -0.0368021 -0.0356408 0.0796222 
-0.0410576 -0.0306421 0.0796222 -0.0410576 -0.0306421 0.251392 -0.0368021 -0.0356408 0.0796222 
-6.70649e-18 0 0.0796222 -0.0410576 -0.0306421 0.0796222 -0.0368021 -0.0356408 0.0796222 
0.03901 -0.0332097 0.251392 0.0429365 -0.0279486 0.0796222 0.03901 -0.0332097 0.0796222 
0.0429365 -0.0279486 0.0796222 -6.70649e-18 0 0.0796222 0.03901 -0.0332097 0.0796222 
0.0429365 -0.0279486 0.251392 0.0429365 -0.0279486 0.0796222 0.03901 -0.0332097 0.251392 
-0.0446389 -0.0251402 0.251392 -0.0410576 -0.0306421 0.251392 -0.0410576 -0.0306421 0.0796222 
-0.0446389 -0.0251402 0.0796222 -0.0446389 -0.0251402 0.251392 -0.0410576 -0.0306421 0.0796222 
-6.70649e-18 0 0.0796222 -0.0446389 -0.0251402 0.0796222 -0.0410576 -0.0306421 0.0796222 
0.0429365 -0.0279486 0.251392 0.0461579 -0.0222285 0.0796222 0.0429365 -0.0279486 0.0796222 
0.0461579 -0.0222285 0.0796222 -6.70649e-18 0 0.0796222 0.0429365 -0.0279486 0.0796222 
0.0461579 -0.0222285 0.251392 0.0461579 -0.0222285 0.0796222 0.0429365 -0.0279486 0.251392 
-0.0474873 -0.0192255 0.251392 -0.0446389 -0.0251402 0.251392 -0.0446389 -0.0251402 0.0796222 
-0.0474873 -0.0192255 0.0796222 -0.0474873 -0.0192255 0.251392 -0.0446389 -0.0251402 0.0796222 
-6.70649e-18 0 0.0796222 -0.0474873 -0.0192255 0.0796222 -0.0446389 -0.0251402 0.0796222 
0.0461579 -0.0222285 0.251392 0.0486215 -0.0161435 0.0796222 0.0461579 -0.0222285 0.0796222 
0.0486215 -0.0161435 0.0796222 -6.70649e-18 0 0.0796222 0.0461579 -0.0222285 0.0796222 
0.0486215 -0.0161435 0.251392 0.0486215 -0.0161435 0.0796222 0.0461579 -0.0222285 0.251392 
-0.0495559 -0.0129951 0.251392 -0.0474873 -0.0192255 0.251392 -0.0474873 -0.0192255 0.0796222 
-0.0495559 -0.0129951 0.0796222 -0.0495559 -0.0129951 0.251392 -0.0474873 -0.0192255 0.0796222 
-6.70649e-18 0 0.0796222 -0.0495559 -0.0129951 0.0796222 -0.0474873 -0.0192255 0.0796222 
0.0486215 -0.0161435 0.251392 0.0502867 -0.00979334 0.0796222 0.0486215 -0.0161435 0.0796222 
0.0502867 -0.00979334 0.0796222 -6.70649e-18 0 0.0796222 0.0486215 -0.0161435 0.0796222 
0.0502867 -0.00979334 0.251392 0.0502867 -0.00979334 0.0796222 0.0486215 -0.0161435 0.251392 
-0.0508109 -0.00655133 0.251392 -0.0495559 -0.0129951 0.251392 -0.0495559 -0.0129951 0.0796222 
-0.0508109 -0.00655133 0.0796222 -0.0508109 -0.00655133 0.251392 -0.0495559 -0.0129951 0.0796222 
-6.70649e-18 0 0.0796222 -0.0508109 -0.00655133 0.0796222 -0.0495559 -0.0129951 0.0796222 
0.0502867 -0.00979334 0.251392 0.0511262 -0.00328241 0.0796222 0.0502867 -0.00979334 0.0796222 
0.0511262 -0.00328241 0.0796222 -6.70649e-18 0 0.0796222 0.0502867 -0.00979334 0.0796222 
0.0511262 -0.00328241 0.251392 0.0511262 -0.00328241 0.0796222 0.0502867 -0.00979334 0.251392 
-0.0512315 -1.25481e-17 0.251392 -0.0508109 -0.00655133 0.251392 -0.0508109 -0.00655133 0.0796222 
-0.0512315 -1.25481e-17 0.0796222 -0.0512315 -1.25481e-17 0.251392 -0.0508109 -0.00655133 0.0796222 
-6.70649e-18 0 0.0796222 -0.0512315 -1.25481e-17 0.0796222 -0.0508109 -0.00655133 0.0796222 
0.0511262 -0.00328241 0.251392 0.0511262 0.00328241 0.0796222 0.0511262 -0.00328241 0.0796222 
0.0511262 0.00328241 0.0796222 -6.70649e-18 0 0.0796222 0.0511262 -0.00328241 0.0796222 
0.0511262 0.00328241 0.251392 0.0511262 0.00328241 0.0796222 0.0511262 -0.00328241 0.251392 
-0.0508109 0.00655133 0.251392 -0.0512315 -1.25481e-17 0.251392 -0.0512315 -1.25481e-17 0.0796222 
-0.0508109 0.00655133 0.0796222 -0.0508109 0.00655133 0.251392 -0.0512315 -1.25481e-17 0.0796222 
-6.70649e-18 0 0.0796222 -0.0508109 0.00655133 0.0796222 -0.0512315 -1.25481e-17 0.0796222 
-0.0474873 0.0192255 0.0796222 -0.0495559 0.0129951 0.0796222 -6.70649e-18 0 0.0796222 
-0.0495559 0.0129951 0.0796222 -0.0508109 0.00655133 0.0796222 -6.70649e-18 0 0.0796222 
-0.0368021 0.0356408 0.0796222 -0.0410576 0.0306421 0.0796222 -6.70649e-18 0 0.0796222 
-0.0410576 0.0306421 0.0796222 -0.0446389 0.0251402 0.0796222 -6.70649e-18 0 0.0796222 
-0.0446389 0.0251402 0.0796222 -0.0474873 0.0192255 0.0796222 -6.70649e-18 0 0.0796222 
-0.0207376 0.0468467 0.0796222 -0.026558 0.0438102 0.0796222 -6.70649e-18 0 0.0796222 
-0.026558 0.0438102 0.0796222 -0.0319423 0.0400544 0.0796222 -6.70649e-18 0 0.0796222 
-0.0319423 0.0400544 0.0796222 -0.0368021 0.0356408 0.0796222 -6.70649e-18 0 0.0796222 
-0.00164205 0.0512051 0.0796222 -0.00817654 0.0505748 0.0796222 -6.70649e-18 0 0.0796222 
-0.00817654 0.0505748 0.0796222 -0.0145768 0.049114 0.0796222 -6.70649e-18 0 0.0796222 
-0.0145768 0.049114 0.0796222 -0.0207376 0.0468467 0.0796222 -6.70649e-18 0 0.0796222 
0.0176936 0.0480791 0.0796222 0.0114001 0.049947 0.0796222 -6.70649e-18 0 0.0796222 
0.0114001 0.049947 0.0796222 0.0049194 0.0509947 0.0796222 -6.70649e-18 0 0.0796222 
0.0049194 0.0509947 0.0796222 -0.00164205 0.0512051 0.0796222 -6.70649e-18 0 0.0796222 
0.034443 0.0379255 0.0796222 0.0293104 0.0420186 0.0796222 -6.70649e-18 0 0.0796222 
0.0293104 0.0420186 0.0796222 0.0236965 0.0454218 0.0796222 -6.70649e-18 0 0.0796222 
0.0236965 0.0454218 0.0796222 0.0176936 0.0480791 0.0796222 -6.70649e-18 0 0.0796222 
0.0461579 0.0222285 0.0796222 0.0429365 0.0279486 0.0796222 -6.70649e-18 0 0.0796222 
0.0429365 0.0279486 0.0796222 0.03901 0.0332097 0.0796222 -6.70649e-18 0 0.0796222 
0.03901 0.0332097 0.0796222 0.034443 0.0379255 0.0796222 -6.70649e-18 0 0.0796222 
0.0511262 0.00328241 0.0796222 0.0502867 0.00979334 0.0796222 -6.70649e-18 0 0.0796222 
0.0502867 0.00979334 0.0796222 0.0486215 0.0161435 0.0796222 -6.70649e-18 0 0.0796222 
0.0486215 0.0161435 0.0796222 0.0461579 0.0222285 0.0796222 -6.70649e-18 0 0.0796222 
0.0511262 0.00328241 0.251392 0.0502867 0.00979334 0.0796222 0.0511262 0.00328241 0.0796222 
0.0502867 0.00979334 0.251392 0.0502867 0.00979334 0.0796222 0.0511262 0.00328241 0.251392 
-0.0495559 0.0129951 0.251392 -0.0508109 0.00655133 0.251392 -0.0508109 0.00655133 0.0796222 
-0.0495559 0.0129951 0.0796222 -0.0495559 0.0129951 0.251392 -0.0508109 0.00655133 0.0796222 
0.0502867 0.00979334 0.251392 0.0486215 0.0161435 0.0796222 0.0502867 0.00979334 0.0796222 
0.0486215 0.0161435 0.251392 0.0486215 0.0161435 0.0796222 0.0502867 0.00979334 0.251392 
-0.0474873 0.0192255 0.251392 -0.0495559 0.0129951 0.251392 -0.0495559 0.0129951 0.0796222 
-0.0474873 0.0192255 0.0796222 -0.0474873 0.0192255 0.251392 -0.0495559 0.0129951 0.0796222 
0.0486215 0.0161435 0.251392 0.0461579 0.0222285 0.0796222 0.0486215 0.0161435 0.0796222 
0.0461579 0.0222285 0.251392 0.0461579 0.0222285 0.0796222 0.0486215 0.0161435 0.251392 
-0.0446389 0.0251402 0.251392 -0.0474873 0.0192255 0.251392 -0.0474873 0.0192255 0.0796222 
-0.0446389 0.0251402 0.0796222 -0.0446389 0.0251402 0.251392 -0.0474873 0.0192255 0.0796222 
0.0461579 0.0222285 0.251392 0.0429365 0.0279486 0.0796222 0.0461579 0.0222285 0.0796222 
0.0429365 0.0279486 0.251392 0.0429365 0.0279486 0.0796222 0.0461579 0.0222285 0.251392 
-0.0410576 0.0306421 0.251392 -0.0446389 0.0251402 0.251392 -0.0446389 0.0251402 0.0796222 
-0.0410576 0.0306421 0.0796222 -0.0410576 0.0306421 0.251392 -0.0446389 0.0251402 0.0796222 
0.0429365 0.0279486 0.251392 0.03901 0.0332097 0.0796222 0.0429365 0.0279486 0.0796222 
0.03901 0.0332097 0.251392 0.03901 0.0332097 0.0796222 0.0429365 0.0279486 0.251392 
-0.0368021 0.0356408 0.251392 -0.0410576 0.0306421 0.251392 -0.0410576 0.0306421 0.0796222 
-0.0368021 0.0356408 0.0796222 -0.0368021 0.0356408 0.251392 -0.0410576 0.0306421 0.0796222 
0.03901 0.0332097 0.251392 0.034443 0.0379255 0.0796222 0.03901 0.0332097 0.0796222 
0.034443 0.0379255 0.251392 0.034443 0.0379255 0.0796222 0.03901 0.0332097 0.251392 
-0.0319423 0.0400544 0.251392 -0.0368021 0.0356408 0.251392 -0.0368021 0.0356408 0.0796222 
-0.0319423 0.0400544 0.0796222 -0.0319423 0.0400544 0.251392 -0.0368021 0.0356408 0.0796222 
0.034443 0.0379255 0.251392 0.0293104 0.0420186 0.0796222 0.034443 0.0379255 0.0796222 
0.0293104 0.0420186 0.251392 0.0293104 0.0420186 0.0796222 0.034443 0.0379255 0.251392 
-0.026558 0.0438102 0.251392 -0.0319423 0.0400544 0.251392 -0.0319423 0.0400544 0.0796222 
-0.026558 0.0438102 0.0796222 -0.026558 0.0438102 0.251392 -0.0319423 0.0400544 0.0796222 
0.0293104 0.0420186 0.251392 0.0236965 0.0454218 0.0796222 0.0293104 0.0420186 0.0796222 
0.0236965 0.0454218 0.251392 0.0236965 0.0454218 0.0796222 0.0293104 0.0420186 0.251392 
-0.0207376 0.0468467 0.251392 -0.026558 0.0438102 0.251392 -0.026558 0.0438102 0.0796222 
-0.0207376 0.0468467 0.0796222 -0.0207376 0.0468467 0.251392 -0.026558 0.0438102 0.0796222 
0.0236965 0.0454218 0.251392 0.0176936 0.0480791 0.0796222 0.0236965 0.0454218 0.0796222 
0.0176936 0.0480791 0.251392 0.0176936 0.0480791 0.0796222 0.0236965 0.0454218 0.251392 
-0.0145768 0.049114 0.251392 -0.0207376 0.0468467 0.251392 -0.0207376 0.0468467 0.0796222 
-0.0145768 0.049114 0.0796222 -0.0145768 0.049114 0.251392 -0.0207376 0.0468467 0.0796222 
0.0176936 0.0480791 0.251392 0.0114001 0.049947 0.0796222 0.0176936 0.0480791 0.0796222 
0.0114001 0.049947 0.251392 0.0114001 0.049947 0.0796222 0.0176936 0.0480791 0.251392 
-0.00817654 0.0505748 0.251392 -0.0145768 0.049114 0.251392 -0.0145768 0.049114 0.0796222 
-0.00817654 0.0505748 0.0796222 -0.00817654 0.0505748 0.251392 -0.0145768 0.049114 0.0796222 
0.0114001 0.049947 0.251392 0.0049194 0.0509947 0.0796222 0.0114001 0.049947 0.0796222 
0.0049194 0.0509947 0.251392 0.0049194 0.0509947 0.0796222 0.0114001 0.049947 0.251392 
-0.00164205 0.0512051 0.251392 -0.00817654 0.0505748 0.251392 -0.00817654 0.0505748 0.0796222 
-0.00164205 0.0512051 0.0796222 -0.00164205 0.0512051 0.251392 -0.00817654 0.0505748 0.0796222 
0.0049194 0.0509947 0.251392 -0.00164205 0.0512051 0.0796222 0.0049194 0.0509947 0.0796222 
-0.00164205 0.0512051 0.251392 -0.00164205 0.0512051 0.0796222 0.0049194 0.0509947 0.251392 

POLYGONS 147 588
3 0 1 2 
3 3 4 5 
3 6 7 8 
3 9 10 11 
3 12 13 14 
3 15 16 17 
3 18 19 20 
3 21 22 23 
3 24 25 26 
3 27 28 29 
3 30 31 32 
3 33 34 35 
3 36 37 38 
3 39 40 41 
3 42 43 44 
3 45 46 47 
3 48 49 50 
3 51 52 53 
3 54 55 56 
3 57 58 59 
3 60 61 62 
3 63 64 65 
3 66 67 68 
3 69 70 71 
3 72 73 74 
3 75 76 77 
3 78 79 80 
3 81 82 83 
3 84 85 86 
3 87 88 89 
3 90 91 92 
3 93 94 95 
3 96 97 98 
3 99 100 101 
3 102 103 104 
3 105 106 107 
3 108 109 110 
3 111 112 113 
3 114 115 116 
3 117 118 119 
3 120 121 122 
3 123 124 125 
3 126 127 128 
3 129 130 131 
3 132 133 134 
3 135 136 137 
3 138 139 140 
3 141 142 143 
3 144 145 146 
3 147 148 149 
3 150 151 152 
3 153 154 155 
3 156 157 158 
3 159 160 161 
3 162 163 164 
3 165 166 167 
3 168 169 170 
3 171 172 173 
3 174 175 176 
3 177 178 179 
3 180 181 182 
3 183 184 185 
3 186 187 188 
3 189 190 191 
3 192 193 194 
3 195 196 197 
3 198 199 200 
3 201 202 203 
3 204 205 206 
3 207 208 209 
3 210 211 212 
3 213 214 215 
3 216 217 218 
3 219 220 221 
3 222 223 224 
3 225 226 227 
3 228 229 230 
3 231 232 233 
3 234 235 236 
3 237 238 239 
3 240 241 242 
3 243 244 245 
3 246 247 248 
3 249 250 251 
3 252 253 254 
3 255 256 257 
3 258 259 260 
3 261 262 263 
3 264 265 266 
3 267 268 269 
3 270 271 272 
3 273 274 275 
3 276 277 278 
3 279 280 281 
3 282 283 284 
3 285 286 287 
3 288 289 290 
3 291 292 293 
3 294 295 296 
3 297 298 299 
3 300 301 302 
3 303 304 305 
3 306 307 308 
3 309 310 311 
3 312 313 314 
3 315 316 317 
3 318 319 320 
3 321 322 323 
3 324 325 326 
3 327 328 329 
3 330 331 332 
3 333 334 335 
3 336 337 338 
3 339 340 341 
3 342 343 344 
3 345 346 347 
3 348 349 350 
3 351 352 353 
3 354 355 356 
3 357 358 359 
3 360 361 362 
3 363 364 365 
3 366 367 368 
3 369 370 371 
3 372 373 374 
3 375 376 377 
3 378 379 380 
3 381 382 383 
3 384 385 386 
3 387 388 389 
3 390 391 392 
3 393 394 395 
3 396 397 398 
3 399 400 401 
3 402 403 404 
3 405 406 407 
3 408 409 410 
3 411 412 413 
3 414 415 416 
3 417 418 419 
3 420 421 422 
3 423 424 425 
3 426 427 428 
3 429 430 431 
3 432 433 434 
3 435 436 437 
3 438 439 440 

CELL_DATA 147
FIELD FieldData 3
normal_stress_average 1 147 double
3.72995 0 0 25.5191 17.5559 0 0 4.6785 0 
0 0 3.27444 0 3.99919 0 0 0 8.69677 
0 4.19726 0 0 0 23.4997 0 2.06602 0 
0 0 23.8845 2.10729 10.1421 0 0 0 74.4233 
0 89.6864 0 0 0 20.7418 0.358579 12.1585 0 
0 0 24.0505 0 22.3738 0 0 0 15.7609 
1.18918 202.781 0 0 0 31.1432 0 129.885 0 
0 0 1.62305 0 3.36315 0 0 0 16.3538 
0.0604966 2.31639 -0 0 0 1.38339 34.4402 61.2538 18.4575 
9.5648 32.152 20.256 129.043 15.0772 52.7532 21.1959 2.06602 69.4737 
10.6127 6.67671 44.3215 23.8424 9.56948 3.96032 3.85588 8.2641 22.2649 
28.4058 9.38689 0.0857546 -0 0 0.59054 -0 -0 0 
0 0 -0 0 0 0 -0 0 0 
0 -0 0 30.0212 0 -0 0 0.15322 0 
-0 0 0 0 -0 0 0 0 -0 
0 0 0 -0 0 0 0 -0 0 
0 0 -0 
shear_stress_average 1 147 double
1.86497 0 0 0.0166304 0.0118275 0 0 0.211791 0 
0 0 2.2928 0 0.000652866 0 0 0 0.00522683 
0 0.00229147 0 0 0 7.94069 0 6.60962e-14 0 
0 0 7.15972 1.80912 4.03805 0 0 0 24.8241 
0 22.1159 0 0 0 0.0376619 0.17929 0.0538456 0 
0 0 12.0253 0 2.43741 0 0 0 5.38516e-06 
0.302444 10.0579 0 0 0 0.433909 0 86.6731 0 
0 0 1.2623 0 0.0815313 0 0 0 6.39218 
0.0302483 0.13763 0 0 0 0.688509 2.20444 21.1794 0.0148429 
5.282e-08 2.09349 0.00040764 12.5122 0.239593 27.4794 3.28413e-11 2.29687e-12 8.4591 
0.259842 0.648295 1.87168 3.47816 3.20025e-06 0.00154542 0.89177 4.82026e-08 0.450856 
8.37473 4.69344 0.0428773 0 0 0.29527 0 0 0 
0 0 0 0 0 0 0 0 0 
0 0 0 1.45482 0 0 0 0.0766101 0 
0 0 0 0 0 0 0 0 0 
0 0 0 0 0 0 0 0 0 
0 0 0 
wear 1 147 double
0.0490687 0 0.0287721 0.395572 0.68079 0 0.0286961 0.873079 0 
0.000482469 0.010482 0.410952 0.0458554 1.08284 0 3.00745e-05 0.0254175 0.181784 
0.0102379 0.541681 0 0.00483757 0.00105314 0.858441 0.00625509 0.872346 0 
0 0.00150879 0.850373 0.0471164 0.3296 0 0.000158309 0.0513801 0.759745 
0.00793363 0.556116 0 0 0.0259786 0.332828 0.00781783 0.342234 0.000992964 
0 0.0336044 0.766474 0.0149567 0.342209 0 0 0.0715112 0.617785 
0.0122501 0.534832 0 0 0.00393065 0.560536 0.00239502 0.366402 0 
0 0.000853649 0.415159 0.0366333 1.15382 0 0 0.0113697 0.792474 
0.0677736 0.801193 0 0 0.0424771 0.782785 0.393774 0.63871 0.708332 
1.24356 0.816861 0.880931 0.173678 0.787476 0.838727 0.919668 0.523655 0.250456 
0.317536 0.997849 0.574222 0.595666 0.696434 0.50038 0.28399 0.535902 0.226919 
0.758412 0.935426 0.00215641 0 0 0.0164382 0.00868592 0 9.20155e-09 
0.0280555 0.00222362 0 0 0.0223222 0.0378407 0 0 0.0128709 
0.0210779 0.000239265 0.000372141 0.101638 0.00233997 0 0.00544443 0.0150583 0.021331 
0 0 0.0021206 0.00389397 7.74993e-06 0 0.0130297 0.0439648 0 
0 0.00878592 0.0085086 0 0 0.040617 0.020339 0 0 
0.0168813 0.0184854 0.00763918 
