# vtk DataFile Version 4.0
Generated by LIGGGHTS
ASCII
DATASET POLYDATA
POINTS 441 float
-0.00164205 -0.0512051 0.251392 0.0049194 -0.0509947 0.0796222 -0.00164205 -0.0512051 0.0796222 
-0.00817654 -0.0505748 0.251392 -0.00164205 -0.0512051 0.251392 -0.00164205 -0.0512051 0.0796222 
-0.00817654 -0.0505748 0.0796222 -0.00817654 -0.0505748 0.251392 -0.00164205 -0.0512051 0.0796222 
-6.70649e-18 0 0.0796222 -0.00817654 -0.0505748 0.0796222 -0.00164205 -0.0512051 0.0796222 
0.0049194 -0.0509947 0.0796222 -6.70649e-18 0 0.0796222 -0.00164205 -0.0512051 0.0796222 
0.0049194 -0.0509947 0.251392 0.0049194 -0.0509947 0.0796222 -0.00164205 -0.0512051 0.251392 
0.0049194 -0.0509947 0.251392 0.0114001 -0.049947 0.0796222 0.0049194 -0.0509947 0.0796222 
0.0114001 -0.049947 0.0796222 -6.70649e-18 0 0.0796222 0.0049194 -0.0509947 0.0796222 
0.0114001 -0.049947 0.251392 0.0114001 -0.049947 0.0796222 0.0049194 -0.0509947 0.251392 
-0.0145768 -0.049114 0.251392 -0.00817654 -0.0505748 0.251392 -0.00817654 -0.0505748 0.0796222 
-0.0145768 -0.049114 0.0796222 -0.0145768 -0.049114 0.251392 -0.00817654 -0.0505748 0.0796222 
-6.70649e-18 0 0.0796222 -0.0145768 -0.049114 0.0796222 -0.00817654 -0.0505748 0.0796222 
0.0114001 -0.049947 0.251392 0.0176936 -0.0480791 0.0796222 0.0114001 -0.049947 0.0796222 
0.0176936 -0.0480791 0.0796222 -6.70649e-18 0 0.0796222 0.0114001 -0.049947 0.0796222 
0.0176936 -0.0480791 0.251392 0.0176936 -0.0480791 0.0796222 0.0114001 -0.049947 0.251392 
-0.0207376 -0.0468467 0.251392 -0.0145768 -0.049114 0.251392 -0.0145768 -0.049114 0.0796222 
-0.0207376 -0.0468467 0.0796222 -0.0207376 -0.0468467 0.251392 -0.0145768 -0.049114 0.0796222 
-6.70649e-18 0 0.0796222 -0.0207376 -0.0468467 0.0796222 -0.0145768 -0.049114 0.0796222 
0.0176936 -0.0480791 0.251392 0.0236965 -0.0454218 0.0796222 0.0176936 -0.0480791 0.0796222 
0.0236965 -0.0454218 0.0796222 -6.70649e-18 0 0.0796222 0.0176936 -0.0480791 0.0796222 
0.0236965 -0.0454218 0.251392 0.0236965 -0.0454218 0.0796222 0.0176936 -0.0480791 0.251392 
-0.026558 -0.0438102 0.251392 -0.0207376 -0.0468467 0.251392 -0.0207376 -0.0468467 0.0796222 
-0.026558 -0.0438102 0.0796222 -0.026558 -0.0438102 0.251392 -0.0207376 -0.0468467 0.0796222 
-6.70649e-18 0 0.0796222 -0.026558 -0.0438102 0.0796222 -0.0207376 -0.0468467 0.0796222 
0.0236965 -0.0454218 0.251392 0.0293104 -0.0420186 0.0796222 0.0236965 -0.0454218 0.0796222 
0.0293104 -0.0420186 0.0796222 -6.70649e-18 0 0.0796222 0.0236965 -0.0454218 0.0796222 
0.0293104 -0.0420186 0.251392 0.0293104 -0.0420186 0.0796222 0.0236965 -0.0454218 0.251392 
-0.0319423 -0.0400544 0.251392 -0.026558 -0.0438102 0.251392 -0.026558 -0.0438102 0.0796222 
-0.0319423 -0.0400544 0.0796222 -0.0319423 -0.0400544 0.251392 -0.026558 -0.0438102 0.0796222 
-6.70649e-18 0 0.0796222 -0.0319423 -0.0400544 0.0796222 -0.026558 -0.0438102 0.0796222 
0.0293104 -0.0420186 0.251392 0.034443 -0.0379255 0.0796222 0.0293104 -0.0420186 0.0796222 
0.034443 -0.0379255 0.0796222 -6.70649e-18 0 0.0796222 0.0293104 -0.0420186 0.0796222 
0.034443 -0.0379255 0.251392 0.034443 -0.0379255 0.0796222 0.0293104 -0.0420186 0.251392 
-0.0368021 -0.0356408 0.251392 -0.0319423 -0.0400544 0.251392 -0.0319423 -0.0400544 0.0796222 
-0.0368021 -0.0356408 0.0796222 -0.0368021 -0.0356408 0.251392 -0.0319423 -0.0400544 0.0796222 
-6.70649e-18 0 0.0796222 -0.0368021 -0.0356408 0.0796222 -0.0319423 -0.0400544 0.0796222 
0.034443 -0.0379255 0.251392 0.03901 -0.0332097 0.0796222 0.034443 -0.0379255 0.0796222 
0.03901 -0.0332097 0.0796222 -6.70649e-18 0 0.0796222 0.034443 -0.0379255 0.0796222 
0.03901 -0.0332097 0.251392 0.03901 -0.0332097 0.0796222 0.034443 -0.0379255 0.251392 
-0.0410576 -0.0306421 0.251392 -0.0368021 -0.0356408 0.251392 -0.0368021 -0.0356408 0.0796222 
-0.0410576 -0.0306421 0.0796222 -0.0410576 -0.0306421 0.251392 -0.0368021 -0.0356408 0.0796222 
-6.70649e-18 0 0.0796222 -0.0410576 -0.0306421 0.0796222 -0.0368021 -0.0356408 0.0796222 
0.03901 -0.0332097 0.251392 0.0429365 -0.0279486 0.0796222 0.03901 -0.0332097 0.0796222 
0.0429365 -0.0279486 0.0796222 -6.70649e-18 0 0.0796222 0.03901 -0.0332097 0.0796222 
0.0429365 -0.0279486 0.251392 0.0429365 -0.0279486 0.0796222 0.03901 -0.0332097 0.251392 
-0.0446389 -0.0251402 0.251392 -0.0410576 -0.0306421 0.251392 -0.0410576 -0.0306421 0.0796222 
-0.0446389 -0.0251402 0.0796222 -0.0446389 -0.0251402 0.251392 -0.0410576 -0.0306421 0.0796222 
-6.70649e-18 0 0.0796222 -0.0446389 -0.0251402 0.0796222 -0.0410576 -0.0306421 0.0796222 
0.0429365 -0.0279486 0.251392 0.0461579 -0.0222285 0.0796222 0.0429365 -0.0279486 0.0796222 
0.0461579 -0.0222285 0.0796222 -6.70649e-18 0 0.0796222 0.0429365 -0.0279486 0.0796222 
0.0461579 -0.0222285 0.251392 0.0461579 -0.0222285 0.0796222 0.0429365 -0.0279486 0.251392 
-0.0474873 -0.0192255 0.251392 -0.0446389 -0.0251402 0.251392 -0.0446389 -0.0251402 0.0796222 
-0.0474873 -0.0192255 0.0796222 -0.0474873 -0.0192255 0.251392 -0.0446389 -0.0251402 0.0796222 
-6.70649e-18 0 0.0796222 -0.0474873 -0.0192255 0.0796222 -0.0446389 -0.0251402 0.0796222 
0.0461579 -0.0222285 0.251392 0.0486215 -0.0161435 0.0796222 0.0461579 -0.0222285 0.0796222 
0.0486215 -0.0161435 0.0796222 -6.70649e-18 0 0.0796222 0.0461579 -0.0222285 0.0796222 
0.0486215 -0.0161435 0.251392 0.0486215 -0.0161435 0.0796222 0.0461579 -0.0222285 0.251392 
-0.0495559 -0.0129951 0.251392 -0.0474873 -0.0192255 0.251392 -0.0474873 -0.0192255 0.0796222 
-0.0495559 -0.0129951 0.0796222 -0.0495559 -0.0129951 0.251392 -0.0474873 -0.0192255 0.0796222 
-6.70649e-18 0 0.0796222 -0.0495559 -0.0129951 0.0796222 -0.0474873 -0.0192255 0.0796222 
0.0486215 -0.0161435 0.251392 0.0502867 -0.00979334 0.0796222 0.0486215 -0.0161435 0.0796222 
0.0502867 -0.00979334 0.0796222 -6.70649e-18 0 0.0796222 0.0486215 -0.0161435 0.0796222 
0.0502867 -0.00979334 0.251392 0.0502867 -0.00979334 0.0796222 0.0486215 -0.0161435 0.251392 
-0.0508109 -0.00655133 0.251392 -0.0495559 -0.0129951 0.251392 -0.0495559 -0.0129951 0.0796222 
-0.0508109 -0.00655133 0.0796222 -0.0508109 -0.00655133 0.251392 -0.0495559 -0.0129951 0.0796222 
-6.70649e-18 0 0.0796222 -0.0508109 -0.00655133 0.0796222 -0.0495559 -0.0129951 0.0796222 
0.0502867 -0.00979334 0.251392 0.0511262 -0.00328241 0.0796222 0.0502867 -0.00979334 0.0796222 
0.0511262 -0.00328241 0.0796222 -6.70649e-18 0 0.0796222 0.0502867 -0.00979334 0.0796222 
0.0511262 -0.00328241 0.251392 0.0511262 -0.00328241 0.0796222 0.0502867 -0.00979334 0.251392 
-0.0512315 -1.25481e-17 0.251392 -0.0508109 -0.00655133 0.251392 -0.0508109 -0.00655133 0.0796222 
-0.0512315 -1.25481e-17 0.0796222 -0.0512315 -1.25481e-17 0.251392 -0.0508109 -0.00655133 0.0796222 
-6.70649e-18 0 0.0796222 -0.0512315 -1.25481e-17 0.0796222 -0.0508109 -0.00655133 0.0796222 
0.0511262 -0.00328241 0.251392 0.0511262 0.00328241 0.0796222 0.0511262 -0.00328241 0.0796222 
0.0511262 0.00328241 0.0796222 -6.70649e-18 0 0.0796222 0.0511262 -0.00328241 0.0796222 
0.0511262 0.00328241 0.251392 0.0511262 0.00328241 0.0796222 0.0511262 -0.00328241 0.251392 
-0.0508109 0.00655133 0.251392 -0.0512315 -1.25481e-17 0.251392 -0.0512315 -1.25481e-17 0.0796222 
-0.0508109 0.00655133 0.0796222 -0.0508109 0.00655133 0.251392 -0.0512315 -1.25481e-17 0.0796222 
-6.70649e-18 0 0.0796222 -0.0508109 0.00655133 0.0796222 -0.0512315 -1.25481e-17 0.0796222 
-0.0474873 0.0192255 0.0796222 -0.0495559 0.0129951 0.0796222 -6.70649e-18 0 0.0796222 
-0.0495559 0.0129951 0.0796222 -0.0508109 0.00655133 0.0796222 -6.70649e-18 0 0.0796222 
-0.0368021 0.0356408 0.0796222 -0.0410576 0.0306421 0.0796222 -6.70649e-18 0 0.0796222 
-0.0410576 0.0306421 0.0796222 -0.0446389 0.0251402 0.0796222 -6.70649e-18 0 0.0796222 
-0.0446389 0.0251402 0.0796222 -0.0474873 0.0192255 0.0796222 -6.70649e-18 0 0.0796222 
-0.0207376 0.0468467 0.0796222 -0.026558 0.0438102 0.0796222 -6.70649e-18 0 0.0796222 
-0.026558 0.0438102 0.0796222 -0.0319423 0.0400544 0.0796222 -6.70649e-18 0 0.0796222 
-0.0319423 0.0400544 0.0796222 -0.0368021 0.0356408 0.0796222 -6.70649e-18 0 0.0796222 
-0.00164205 0.0512051 0.0796222 -0.00817654 0.0505748 0.0796222 -6.70649e-18 0 0.0796222 
-0.00817654 0.0505748 0.0796222 -0.0145768 0.049114 0.0796222 -6.70649e-18 0 0.0796222 
-0.0145768 0.049114 0.0796222 -0.0207376 0.0468467 0.0796222 -6.70649e-18 0 0.0796222 
0.0176936 0.0480791 0.0796222 0.0114001 0.049947 0.0796222 -6.70649e-18 0 0.0796222 
0.0114001 0.049947 0.0796222 0.0049194 0.0509947 0.0796222 -6.70649e-18 0 0.0796222 
0.0049194 0.0509947 0.0796222 -0.00164205 0.0512051 0.0796222 -6.70649e-18 0 0.0796222 
0.034443 0.0379255 0.0796222 0.0293104 0.0420186 0.0796222 -6.70649e-18 0 0.0796222 
0.0293104 0.0420186 0.0796222 0.0236965 0.0454218 0.0796222 -6.70649e-18 0 0.0796222 
0.0236965 0.0454218 0.0796222 0.0176936 0.0480791 0.0796222 -6.70649e-18 0 0.0796222 
0.0461579 0.0222285 0.0796222 0.0429365 0.0279486 0.0796222 -6.70649e-18 0 0.0796222 
0.0429365 0.0279486 0.0796222 0.03901 0.0332097 0.0796222 -6.70649e-18 0 0.0796222 
0.03901 0.0332097 0.0796222 0.034443 0.0379255 0.0796222 -6.70649e-18 0 0.0796222 
0.0511262 0.00328241 0.0796222 0.0502867 0.00979334 0.0796222 -6.70649e-18 0 0.0796222 
0.0502867 0.00979334 0.0796222 0.0486215 0.0161435 0.0796222 -6.70649e-18 0 0.0796222 
0.0486215 0.0161435 0.0796222 0.0461579 0.0222285 0.0796222 -6.70649e-18 0 0.0796222 
0.0511262 0.00328241 0.251392 0.0502867 0.00979334 0.0796222 0.0511262 0.00328241 0.0796222 
0.0502867 0.00979334 0.251392 0.0502867 0.00979334 0.0796222 0.0511262 0.00328241 0.251392 
-0.0495559 0.0129951 0.251392 -0.0508109 0.00655133 0.251392 -0.0508109 0.00655133 0.0796222 
-0.0495559 0.0129951 0.0796222 -0.0495559 0.0129951 0.251392 -0.0508109 0.00655133 0.0796222 
0.0502867 0.00979334 0.251392 0.0486215 0.0161435 0.0796222 0.0502867 0.00979334 0.0796222 
0.0486215 0.0161435 0.251392 0.0486215 0.0161435 0.0796222 0.0502867 0.00979334 0.251392 
-0.0474873 0.0192255 0.251392 -0.0495559 0.0129951 0.251392 -0.0495559 0.0129951 0.0796222 
-0.0474873 0.0192255 0.0796222 -0.0474873 0.0192255 0.251392 -0.0495559 0.0129951 0.0796222 
0.0486215 0.0161435 0.251392 0.0461579 0.0222285 0.0796222 0.0486215 0.0161435 0.0796222 
0.0461579 0.0222285 0.251392 0.0461579 0.0222285 0.0796222 0.0486215 0.0161435 0.251392 
-0.0446389 0.0251402 0.251392 -0.0474873 0.0192255 0.251392 -0.0474873 0.0192255 0.0796222 
-0.0446389 0.0251402 0.0796222 -0.0446389 0.0251402 0.251392 -0.0474873 0.0192255 0.0796222 
0.0461579 0.0222285 0.251392 0.0429365 0.0279486 0.0796222 0.0461579 0.0222285 0.0796222 
0.0429365 0.0279486 0.251392 0.0429365 0.0279486 0.0796222 0.0461579 0.0222285 0.251392 
-0.0410576 0.0306421 0.251392 -0.0446389 0.0251402 0.251392 -0.0446389 0.0251402 0.0796222 
-0.0410576 0.0306421 0.0796222 -0.0410576 0.0306421 0.251392 -0.0446389 0.0251402 0.0796222 
0.0429365 0.0279486 0.251392 0.03901 0.0332097 0.0796222 0.0429365 0.0279486 0.0796222 
0.03901 0.0332097 0.251392 0.03901 0.0332097 0.0796222 0.0429365 0.0279486 0.251392 
-0.0368021 0.0356408 0.251392 -0.0410576 0.0306421 0.251392 -0.0410576 0.0306421 0.0796222 
-0.0368021 0.0356408 0.0796222 -0.0368021 0.0356408 0.251392 -0.0410576 0.0306421 0.0796222 
0.03901 0.0332097 0.251392 0.034443 0.0379255 0.0796222 0.03901 0.0332097 0.0796222 
0.034443 0.0379255 0.251392 0.034443 0.0379255 0.0796222 0.03901 0.0332097 0.251392 
-0.0319423 0.0400544 0.251392 -0.0368021 0.0356408 0.251392 -0.0368021 0.0356408 0.0796222 
-0.0319423 0.0400544 0.0796222 -0.0319423 0.0400544 0.251392 -0.0368021 0.0356408 0.0796222 
0.034443 0.0379255 0.251392 0.0293104 0.0420186 0.0796222 0.034443 0.0379255 0.0796222 
0.0293104 0.0420186 0.251392 0.0293104 0.0420186 0.0796222 0.034443 0.0379255 0.251392 
-0.026558 0.0438102 0.251392 -0.0319423 0.0400544 0.251392 -0.0319423 0.0400544 0.0796222 
-0.026558 0.0438102 0.0796222 -0.026558 0.0438102 0.251392 -0.0319423 0.0400544 0.0796222 
0.0293104 0.0420186 0.251392 0.0236965 0.0454218 0.0796222 0.0293104 0.0420186 0.0796222 
0.0236965 0.0454218 0.251392 0.0236965 0.0454218 0.0796222 0.0293104 0.0420186 0.251392 
-0.0207376 0.0468467 0.251392 -0.026558 0.0438102 0.251392 -0.026558 0.0438102 0.0796222 
-0.0207376 0.0468467 0.0796222 -0.0207376 0.0468467 0.251392 -0.026558 0.0438102 0.0796222 
0.0236965 0.0454218 0.251392 0.0176936 0.0480791 0.0796222 0.0236965 0.0454218 0.0796222 
0.0176936 0.0480791 0.251392 0.0176936 0.0480791 0.0796222 0.0236965 0.0454218 0.251392 
-0.0145768 0.049114 0.251392 -0.0207376 0.0468467 0.251392 -0.0207376 0.0468467 0.0796222 
-0.0145768 0.049114 0.0796222 -0.0145768 0.049114 0.251392 -0.0207376 0.0468467 0.0796222 
0.0176936 0.0480791 0.251392 0.0114001 0.049947 0.0796222 0.0176936 0.0480791 0.0796222 
0.0114001 0.049947 0.251392 0.0114001 0.049947 0.0796222 0.0176936 0.0480791 0.251392 
-0.00817654 0.0505748 0.251392 -0.0145768 0.049114 0.251392 -0.0145768 0.049114 0.0796222 
-0.00817654 0.0505748 0.0796222 -0.00817654 0.0505748 0.251392 -0.0145768 0.049114 0.0796222 
0.0114001 0.049947 0.251392 0.0049194 0.0509947 0.0796222 0.0114001 0.049947 0.0796222 
0.0049194 0.0509947 0.251392 0.0049194 0.0509947 0.0796222 0.0114001 0.049947 0.251392 
-0.00164205 0.0512051 0.251392 -0.00817654 0.0505748 0.251392 -0.00817654 0.0505748 0.0796222 
-0.00164205 0.0512051 0.0796222 -0.00164205 0.0512051 0.251392 -0.00817654 0.0505748 0.0796222 
0.0049194 0.0509947 0.251392 -0.00164205 0.0512051 0.0796222 0.0049194 0.0509947 0.0796222 
-0.00164205 0.0512051 0.251392 -0.00164205 0.0512051 0.0796222 0.0049194 0.0509947 0.251392 

POLYGONS 147 588
3 0 1 2 
3 3 4 5 
3 6 7 8 
3 9 10 11 
3 12 13 14 
3 15 16 17 
3 18 19 20 
3 21 22 23 
3 24 25 26 
3 27 28 29 
3 30 31 32 
3 33 34 35 
3 36 37 38 
3 39 40 41 
3 42 43 44 
3 45 46 47 
3 48 49 50 
3 51 52 53 
3 54 55 56 
3 57 58 59 
3 60 61 62 
3 63 64 65 
3 66 67 68 
3 69 70 71 
3 72 73 74 
3 75 76 77 
3 78 79 80 
3 81 82 83 
3 84 85 86 
3 87 88 89 
3 90 91 92 
3 93 94 95 
3 96 97 98 
3 99 100 101 
3 102 103 104 
3 105 106 107 
3 108 109 110 
3 111 112 113 
3 114 115 116 
3 117 118 119 
3 120 121 122 
3 123 124 125 
3 126 127 128 
3 129 130 131 
3 132 133 134 
3 135 136 137 
3 138 139 140 
3 141 142 143 
3 144 145 146 
3 147 148 149 
3 150 151 152 
3 153 154 155 
3 156 157 158 
3 159 160 161 
3 162 163 164 
3 165 166 167 
3 168 169 170 
3 171 172 173 
3 174 175 176 
3 177 178 179 
3 180 181 182 
3 183 184 185 
3 186 187 188 
3 189 190 191 
3 192 193 194 
3 195 196 197 
3 198 199 200 
3 201 202 203 
3 204 205 206 
3 207 208 209 
3 210 211 212 
3 213 214 215 
3 216 217 218 
3 219 220 221 
3 222 223 224 
3 225 226 227 
3 228 229 230 
3 231 232 233 
3 234 235 236 
3 237 238 239 
3 240 241 242 
3 243 244 245 
3 246 247 248 
3 249 250 251 
3 252 253 254 
3 255 256 257 
3 258 259 260 
3 261 262 263 
3 264 265 266 
3 267 268 269 
3 270 271 272 
3 273 274 275 
3 276 277 278 
3 279 280 281 
3 282 283 284 
3 285 286 287 
3 288 289 290 
3 291 292 293 
3 294 295 296 
3 297 298 299 
3 300 301 302 
3 303 304 305 
3 306 307 308 
3 309 310 311 
3 312 313 314 
3 315 316 317 
3 318 319 320 
3 321 322 323 
3 324 325 326 
3 327 328 329 
3 330 331 332 
3 333 334 335 
3 336 337 338 
3 339 340 341 
3 342 343 344 
3 345 346 347 
3 348 349 350 
3 351 352 353 
3 354 355 356 
3 357 358 359 
3 360 361 362 
3 363 364 365 
3 366 367 368 
3 369 370 371 
3 372 373 374 
3 375 376 377 
3 378 379 380 
3 381 382 383 
3 384 385 386 
3 387 388 389 
3 390 391 392 
3 393 394 395 
3 396 397 398 
3 399 400 401 
3 402 403 404 
3 405 406 407 
3 408 409 410 
3 411 412 413 
3 414 415 416 
3 417 418 419 
3 420 421 422 
3 423 424 425 
3 426 427 428 
3 429 430 431 
3 432 433 434 
3 435 436 437 
3 438 439 440 

CELL_DATA 147
FIELD FieldData 3
normal_stress_average 1 147 double
0 0 0 4.13204 0 0 0 16.221 0 
0 0 0 0 0 0 0 0 10.2649 
0 4.17957 0 0 0 5.35998 0 201.198 0 
0 0 13.019 0 41.8057 0 0 0 52.504 
0 2.06602 0 0 0 9.5951 0 0 0 
0 0 7.42054 0 0 0 0 0 0 
0 10.3076 0 0 0 2.06602 0 2.0106 0 
0 0 2.25042 0 0 0 0 0 4.13215 
-0 9.57377 -0 0 0 0 18.6198 0 23.2412 
0 15.334 1588.4 2.06607 137.006 744.227 9.57835 0.641315 16.0436 
26.5526 2.14967 132.763 2.06602 27.9774 2.46829 2.06602 7.67476 30.0631 
0 205.551 -0 -0 0 0 -0 -0 0 
0 0.387421 -0 0 0 0 -0 0 0 
0 -0 0 0 0 -0 0 0 0 
-0 0 0 0 -0 0 0 0 -0 
0 0 0 -0 0 0 0 -0 0 
0 0 -0 
shear_stress_average 1 147 double
0 0 0 3.65231e-13 0 0 0 0.0294989 0 
0 0 0 0 0 0 0 0 0.0670232 
0 0.0184712 0 0 0 1.586 0 3.53495 0 
0 0 0.00637358 0 13.6504 0 0 0 26.252 
0 2.86544e-10 0 0 0 0.00010203 0 0 0 
0 0 2.67726 0 0 0 0 0 0 
0 0.527144 0 0 0 9.61363e-14 0 0.0202969 0 
0 0 0.207566 0 0 0 0 0 6.72689e-07 
0 0.000188532 0 0 0 0 0.00262753 0 2.52696e-06 
0 20.9124 394.313 4.56622e-07 31.4291 59.053 3.9366e-05 0.0656697 8.03814 
6.41209 0.000124704 65.3834 1.81979e-13 0.0104092 0.721893 4.26478e-14 0.0147046 2.01838 
0 102.776 0 0 0 0 0 0 0 
0 0.193711 0 0 0 0 0 0 0 
0 0 0 0 0 0 0 0 0 
0 0 0 0 0 0 0 0 0 
0 0 0 0 0 0 0 0 0 
0 0 0 
wear 1 147 double
0.0328355 0 0.0220051 0.271275 0.445161 0 0.0128336 0.156149 0 
0 0.00395583 0.134654 0.000754448 0.308284 0 0 0.00717423 0.0374813 
0.0102379 0.402577 0 0 0 0.226616 0.00484953 0.570219 0 
0 0 0.587313 0.0397823 0.09829 0 0 0.0158051 0.425802 
0.00572365 0.245082 0 0 0.019547 0.127507 0 0.190148 0 
0 0.00358918 0.155808 0.0142778 0.223996 0 0 0 0.335665 
0.00340678 0.319856 0 0 0.00177572 0.0687904 0.002213 0.0900199 0 
0 0 0.17651 0 0.0653334 0 0 0.0113697 0.596206 
0.0669178 0.240609 0 0 0.00438609 0.59331 0.259946 0.3492 0.183143 
0.314334 0.519378 0.433554 0.0360631 0.131259 0.363273 0.267012 0.280238 0.101597 
0.129988 0.235015 0.282525 0.0861023 0.318881 0.254351 0.139705 0.168181 0.0652262 
0.230576 0.738888 0.00214736 0 0 0.0141353 0.00795888 0 0 
0.0196513 0.00181114 0 0 0.0223015 0.029683 0 0 0.0033155 
0.0191561 0 0.000372141 0.0895488 0.000581362 0 0 0.00383433 0.0109239 
0 0 0 0.000838957 0 0 0.0130297 0.040182 0 
0 0 0.00737108 0 0 0.00123545 0.0171595 0 0 
0.011314 0.00265682 0.00763918 
