# vtk DataFile Version 4.0
Generated by LIGGGHTS
ASCII
DATASET POLYDATA
POINTS 441 float
-0.00164205 -0.0512051 0.251392 0.0049194 -0.0509947 0.0796222 -0.00164205 -0.0512051 0.0796222 
-0.00817654 -0.0505748 0.251392 -0.00164205 -0.0512051 0.251392 -0.00164205 -0.0512051 0.0796222 
-0.00817654 -0.0505748 0.0796222 -0.00817654 -0.0505748 0.251392 -0.00164205 -0.0512051 0.0796222 
-6.70649e-18 0 0.0796222 -0.00817654 -0.0505748 0.0796222 -0.00164205 -0.0512051 0.0796222 
0.0049194 -0.0509947 0.0796222 -6.70649e-18 0 0.0796222 -0.00164205 -0.0512051 0.0796222 
0.0049194 -0.0509947 0.251392 0.0049194 -0.0509947 0.0796222 -0.00164205 -0.0512051 0.251392 
0.0049194 -0.0509947 0.251392 0.0114001 -0.049947 0.0796222 0.0049194 -0.0509947 0.0796222 
0.0114001 -0.049947 0.0796222 -6.70649e-18 0 0.0796222 0.0049194 -0.0509947 0.0796222 
0.0114001 -0.049947 0.251392 0.0114001 -0.049947 0.0796222 0.0049194 -0.0509947 0.251392 
-0.0145768 -0.049114 0.251392 -0.00817654 -0.0505748 0.251392 -0.00817654 -0.0505748 0.0796222 
-0.0145768 -0.049114 0.0796222 -0.0145768 -0.049114 0.251392 -0.00817654 -0.0505748 0.0796222 
-6.70649e-18 0 0.0796222 -0.0145768 -0.049114 0.0796222 -0.00817654 -0.0505748 0.0796222 
0.0114001 -0.049947 0.251392 0.0176936 -0.0480791 0.0796222 0.0114001 -0.049947 0.0796222 
0.0176936 -0.0480791 0.0796222 -6.70649e-18 0 0.0796222 0.0114001 -0.049947 0.0796222 
0.0176936 -0.0480791 0.251392 0.0176936 -0.0480791 0.0796222 0.0114001 -0.049947 0.251392 
-0.0207376 -0.0468467 0.251392 -0.0145768 -0.049114 0.251392 -0.0145768 -0.049114 0.0796222 
-0.0207376 -0.0468467 0.0796222 -0.0207376 -0.0468467 0.251392 -0.0145768 -0.049114 0.0796222 
-6.70649e-18 0 0.0796222 -0.0207376 -0.0468467 0.0796222 -0.0145768 -0.049114 0.0796222 
0.0176936 -0.0480791 0.251392 0.0236965 -0.0454218 0.0796222 0.0176936 -0.0480791 0.0796222 
0.0236965 -0.0454218 0.0796222 -6.70649e-18 0 0.0796222 0.0176936 -0.0480791 0.0796222 
0.0236965 -0.0454218 0.251392 0.0236965 -0.0454218 0.0796222 0.0176936 -0.0480791 0.251392 
-0.026558 -0.0438102 0.251392 -0.0207376 -0.0468467 0.251392 -0.0207376 -0.0468467 0.0796222 
-0.026558 -0.0438102 0.0796222 -0.026558 -0.0438102 0.251392 -0.0207376 -0.0468467 0.0796222 
-6.70649e-18 0 0.0796222 -0.026558 -0.0438102 0.0796222 -0.0207376 -0.0468467 0.0796222 
0.0236965 -0.0454218 0.251392 0.0293104 -0.0420186 0.0796222 0.0236965 -0.0454218 0.0796222 
0.0293104 -0.0420186 0.0796222 -6.70649e-18 0 0.0796222 0.0236965 -0.0454218 0.0796222 
0.0293104 -0.0420186 0.251392 0.0293104 -0.0420186 0.0796222 0.0236965 -0.0454218 0.251392 
-0.0319423 -0.0400544 0.251392 -0.026558 -0.0438102 0.251392 -0.026558 -0.0438102 0.0796222 
-0.0319423 -0.0400544 0.0796222 -0.0319423 -0.0400544 0.251392 -0.026558 -0.0438102 0.0796222 
-6.70649e-18 0 0.0796222 -0.0319423 -0.0400544 0.0796222 -0.026558 -0.0438102 0.0796222 
0.0293104 -0.0420186 0.251392 0.034443 -0.0379255 0.0796222 0.0293104 -0.0420186 0.0796222 
0.034443 -0.0379255 0.0796222 -6.70649e-18 0 0.0796222 0.0293104 -0.0420186 0.0796222 
0.034443 -0.0379255 0.251392 0.034443 -0.0379255 0.0796222 0.0293104 -0.0420186 0.251392 
-0.0368021 -0.0356408 0.251392 -0.0319423 -0.0400544 0.251392 -0.0319423 -0.0400544 0.0796222 
-0.0368021 -0.0356408 0.0796222 -0.0368021 -0.0356408 0.251392 -0.0319423 -0.0400544 0.0796222 
-6.70649e-18 0 0.0796222 -0.0368021 -0.0356408 0.0796222 -0.0319423 -0.0400544 0.0796222 
0.034443 -0.0379255 0.251392 0.03901 -0.0332097 0.0796222 0.034443 -0.0379255 0.0796222 
0.03901 -0.0332097 0.0796222 -6.70649e-18 0 0.0796222 0.034443 -0.0379255 0.0796222 
0.03901 -0.0332097 0.251392 0.03901 -0.0332097 0.0796222 0.034443 -0.0379255 0.251392 
-0.0410576 -0.0306421 0.251392 -0.0368021 -0.0356408 0.251392 -0.0368021 -0.0356408 0.0796222 
-0.0410576 -0.0306421 0.0796222 -0.0410576 -0.0306421 0.251392 -0.0368021 -0.0356408 0.0796222 
-6.70649e-18 0 0.0796222 -0.0410576 -0.0306421 0.0796222 -0.0368021 -0.0356408 0.0796222 
0.03901 -0.0332097 0.251392 0.0429365 -0.0279486 0.0796222 0.03901 -0.0332097 0.0796222 
0.0429365 -0.0279486 0.0796222 -6.70649e-18 0 0.0796222 0.03901 -0.0332097 0.0796222 
0.0429365 -0.0279486 0.251392 0.0429365 -0.0279486 0.0796222 0.03901 -0.0332097 0.251392 
-0.0446389 -0.0251402 0.251392 -0.0410576 -0.0306421 0.251392 -0.0410576 -0.0306421 0.0796222 
-0.0446389 -0.0251402 0.0796222 -0.0446389 -0.0251402 0.251392 -0.0410576 -0.0306421 0.0796222 
-6.70649e-18 0 0.0796222 -0.0446389 -0.0251402 0.0796222 -0.0410576 -0.0306421 0.0796222 
0.0429365 -0.0279486 0.251392 0.0461579 -0.0222285 0.0796222 0.0429365 -0.0279486 0.0796222 
0.0461579 -0.0222285 0.0796222 -6.70649e-18 0 0.0796222 0.0429365 -0.0279486 0.0796222 
0.0461579 -0.0222285 0.251392 0.0461579 -0.0222285 0.0796222 0.0429365 -0.0279486 0.251392 
-0.0474873 -0.0192255 0.251392 -0.0446389 -0.0251402 0.251392 -0.0446389 -0.0251402 0.0796222 
-0.0474873 -0.0192255 0.0796222 -0.0474873 -0.0192255 0.251392 -0.0446389 -0.0251402 0.0796222 
-6.70649e-18 0 0.0796222 -0.0474873 -0.0192255 0.0796222 -0.0446389 -0.0251402 0.0796222 
0.0461579 -0.0222285 0.251392 0.0486215 -0.0161435 0.0796222 0.0461579 -0.0222285 0.0796222 
0.0486215 -0.0161435 0.0796222 -6.70649e-18 0 0.0796222 0.0461579 -0.0222285 0.0796222 
0.0486215 -0.0161435 0.251392 0.0486215 -0.0161435 0.0796222 0.0461579 -0.0222285 0.251392 
-0.0495559 -0.0129951 0.251392 -0.0474873 -0.0192255 0.251392 -0.0474873 -0.0192255 0.0796222 
-0.0495559 -0.0129951 0.0796222 -0.0495559 -0.0129951 0.251392 -0.0474873 -0.0192255 0.0796222 
-6.70649e-18 0 0.0796222 -0.0495559 -0.0129951 0.0796222 -0.0474873 -0.0192255 0.0796222 
0.0486215 -0.0161435 0.251392 0.0502867 -0.00979334 0.0796222 0.0486215 -0.0161435 0.0796222 
0.0502867 -0.00979334 0.0796222 -6.70649e-18 0 0.0796222 0.0486215 -0.0161435 0.0796222 
0.0502867 -0.00979334 0.251392 0.0502867 -0.00979334 0.0796222 0.0486215 -0.0161435 0.251392 
-0.0508109 -0.00655133 0.251392 -0.0495559 -0.0129951 0.251392 -0.0495559 -0.0129951 0.0796222 
-0.0508109 -0.00655133 0.0796222 -0.0508109 -0.00655133 0.251392 -0.0495559 -0.0129951 0.0796222 
-6.70649e-18 0 0.0796222 -0.0508109 -0.00655133 0.0796222 -0.0495559 -0.0129951 0.0796222 
0.0502867 -0.00979334 0.251392 0.0511262 -0.00328241 0.0796222 0.0502867 -0.00979334 0.0796222 
0.0511262 -0.00328241 0.0796222 -6.70649e-18 0 0.0796222 0.0502867 -0.00979334 0.0796222 
0.0511262 -0.00328241 0.251392 0.0511262 -0.00328241 0.0796222 0.0502867 -0.00979334 0.251392 
-0.0512315 -1.25481e-17 0.251392 -0.0508109 -0.00655133 0.251392 -0.0508109 -0.00655133 0.0796222 
-0.0512315 -1.25481e-17 0.0796222 -0.0512315 -1.25481e-17 0.251392 -0.0508109 -0.00655133 0.0796222 
-6.70649e-18 0 0.0796222 -0.0512315 -1.25481e-17 0.0796222 -0.0508109 -0.00655133 0.0796222 
0.0511262 -0.00328241 0.251392 0.0511262 0.00328241 0.0796222 0.0511262 -0.00328241 0.0796222 
0.0511262 0.00328241 0.0796222 -6.70649e-18 0 0.0796222 0.0511262 -0.00328241 0.0796222 
0.0511262 0.00328241 0.251392 0.0511262 0.00328241 0.0796222 0.0511262 -0.00328241 0.251392 
-0.0508109 0.00655133 0.251392 -0.0512315 -1.25481e-17 0.251392 -0.0512315 -1.25481e-17 0.0796222 
-0.0508109 0.00655133 0.0796222 -0.0508109 0.00655133 0.251392 -0.0512315 -1.25481e-17 0.0796222 
-6.70649e-18 0 0.0796222 -0.0508109 0.00655133 0.0796222 -0.0512315 -1.25481e-17 0.0796222 
-0.0474873 0.0192255 0.0796222 -0.0495559 0.0129951 0.0796222 -6.70649e-18 0 0.0796222 
-0.0495559 0.0129951 0.0796222 -0.0508109 0.00655133 0.0796222 -6.70649e-18 0 0.0796222 
-0.0368021 0.0356408 0.0796222 -0.0410576 0.0306421 0.0796222 -6.70649e-18 0 0.0796222 
-0.0410576 0.0306421 0.0796222 -0.0446389 0.0251402 0.0796222 -6.70649e-18 0 0.0796222 
-0.0446389 0.0251402 0.0796222 -0.0474873 0.0192255 0.0796222 -6.70649e-18 0 0.0796222 
-0.0207376 0.0468467 0.0796222 -0.026558 0.0438102 0.0796222 -6.70649e-18 0 0.0796222 
-0.026558 0.0438102 0.0796222 -0.0319423 0.0400544 0.0796222 -6.70649e-18 0 0.0796222 
-0.0319423 0.0400544 0.0796222 -0.0368021 0.0356408 0.0796222 -6.70649e-18 0 0.0796222 
-0.00164205 0.0512051 0.0796222 -0.00817654 0.0505748 0.0796222 -6.70649e-18 0 0.0796222 
-0.00817654 0.0505748 0.0796222 -0.0145768 0.049114 0.0796222 -6.70649e-18 0 0.0796222 
-0.0145768 0.049114 0.0796222 -0.0207376 0.0468467 0.0796222 -6.70649e-18 0 0.0796222 
0.0176936 0.0480791 0.0796222 0.0114001 0.049947 0.0796222 -6.70649e-18 0 0.0796222 
0.0114001 0.049947 0.0796222 0.0049194 0.0509947 0.0796222 -6.70649e-18 0 0.0796222 
0.0049194 0.0509947 0.0796222 -0.00164205 0.0512051 0.0796222 -6.70649e-18 0 0.0796222 
0.034443 0.0379255 0.0796222 0.0293104 0.0420186 0.0796222 -6.70649e-18 0 0.0796222 
0.0293104 0.0420186 0.0796222 0.0236965 0.0454218 0.0796222 -6.70649e-18 0 0.0796222 
0.0236965 0.0454218 0.0796222 0.0176936 0.0480791 0.0796222 -6.70649e-18 0 0.0796222 
0.0461579 0.0222285 0.0796222 0.0429365 0.0279486 0.0796222 -6.70649e-18 0 0.0796222 
0.0429365 0.0279486 0.0796222 0.03901 0.0332097 0.0796222 -6.70649e-18 0 0.0796222 
0.03901 0.0332097 0.0796222 0.034443 0.0379255 0.0796222 -6.70649e-18 0 0.0796222 
0.0511262 0.00328241 0.0796222 0.0502867 0.00979334 0.0796222 -6.70649e-18 0 0.0796222 
0.0502867 0.00979334 0.0796222 0.0486215 0.0161435 0.0796222 -6.70649e-18 0 0.0796222 
0.0486215 0.0161435 0.0796222 0.0461579 0.0222285 0.0796222 -6.70649e-18 0 0.0796222 
0.0511262 0.00328241 0.251392 0.0502867 0.00979334 0.0796222 0.0511262 0.00328241 0.0796222 
0.0502867 0.00979334 0.251392 0.0502867 0.00979334 0.0796222 0.0511262 0.00328241 0.251392 
-0.0495559 0.0129951 0.251392 -0.0508109 0.00655133 0.251392 -0.0508109 0.00655133 0.0796222 
-0.0495559 0.0129951 0.0796222 -0.0495559 0.0129951 0.251392 -0.0508109 0.00655133 0.0796222 
0.0502867 0.00979334 0.251392 0.0486215 0.0161435 0.0796222 0.0502867 0.00979334 0.0796222 
0.0486215 0.0161435 0.251392 0.0486215 0.0161435 0.0796222 0.0502867 0.00979334 0.251392 
-0.0474873 0.0192255 0.251392 -0.0495559 0.0129951 0.251392 -0.0495559 0.0129951 0.0796222 
-0.0474873 0.0192255 0.0796222 -0.0474873 0.0192255 0.251392 -0.0495559 0.0129951 0.0796222 
0.0486215 0.0161435 0.251392 0.0461579 0.0222285 0.0796222 0.0486215 0.0161435 0.0796222 
0.0461579 0.0222285 0.251392 0.0461579 0.0222285 0.0796222 0.0486215 0.0161435 0.251392 
-0.0446389 0.0251402 0.251392 -0.0474873 0.0192255 0.251392 -0.0474873 0.0192255 0.0796222 
-0.0446389 0.0251402 0.0796222 -0.0446389 0.0251402 0.251392 -0.0474873 0.0192255 0.0796222 
0.0461579 0.0222285 0.251392 0.0429365 0.0279486 0.0796222 0.0461579 0.0222285 0.0796222 
0.0429365 0.0279486 0.251392 0.0429365 0.0279486 0.0796222 0.0461579 0.0222285 0.251392 
-0.0410576 0.0306421 0.251392 -0.0446389 0.0251402 0.251392 -0.0446389 0.0251402 0.0796222 
-0.0410576 0.0306421 0.0796222 -0.0410576 0.0306421 0.251392 -0.0446389 0.0251402 0.0796222 
0.0429365 0.0279486 0.251392 0.03901 0.0332097 0.0796222 0.0429365 0.0279486 0.0796222 
0.03901 0.0332097 0.251392 0.03901 0.0332097 0.0796222 0.0429365 0.0279486 0.251392 
-0.0368021 0.0356408 0.251392 -0.0410576 0.0306421 0.251392 -0.0410576 0.0306421 0.0796222 
-0.0368021 0.0356408 0.0796222 -0.0368021 0.0356408 0.251392 -0.0410576 0.0306421 0.0796222 
0.03901 0.0332097 0.251392 0.034443 0.0379255 0.0796222 0.03901 0.0332097 0.0796222 
0.034443 0.0379255 0.251392 0.034443 0.0379255 0.0796222 0.03901 0.0332097 0.251392 
-0.0319423 0.0400544 0.251392 -0.0368021 0.0356408 0.251392 -0.0368021 0.0356408 0.0796222 
-0.0319423 0.0400544 0.0796222 -0.0319423 0.0400544 0.251392 -0.0368021 0.0356408 0.0796222 
0.034443 0.0379255 0.251392 0.0293104 0.0420186 0.0796222 0.034443 0.0379255 0.0796222 
0.0293104 0.0420186 0.251392 0.0293104 0.0420186 0.0796222 0.034443 0.0379255 0.251392 
-0.026558 0.0438102 0.251392 -0.0319423 0.0400544 0.251392 -0.0319423 0.0400544 0.0796222 
-0.026558 0.0438102 0.0796222 -0.026558 0.0438102 0.251392 -0.0319423 0.0400544 0.0796222 
0.0293104 0.0420186 0.251392 0.0236965 0.0454218 0.0796222 0.0293104 0.0420186 0.0796222 
0.0236965 0.0454218 0.251392 0.0236965 0.0454218 0.0796222 0.0293104 0.0420186 0.251392 
-0.0207376 0.0468467 0.251392 -0.026558 0.0438102 0.251392 -0.026558 0.0438102 0.0796222 
-0.0207376 0.0468467 0.0796222 -0.0207376 0.0468467 0.251392 -0.026558 0.0438102 0.0796222 
0.0236965 0.0454218 0.251392 0.0176936 0.0480791 0.0796222 0.0236965 0.0454218 0.0796222 
0.0176936 0.0480791 0.251392 0.0176936 0.0480791 0.0796222 0.0236965 0.0454218 0.251392 
-0.0145768 0.049114 0.251392 -0.0207376 0.0468467 0.251392 -0.0207376 0.0468467 0.0796222 
-0.0145768 0.049114 0.0796222 -0.0145768 0.049114 0.251392 -0.0207376 0.0468467 0.0796222 
0.0176936 0.0480791 0.251392 0.0114001 0.049947 0.0796222 0.0176936 0.0480791 0.0796222 
0.0114001 0.049947 0.251392 0.0114001 0.049947 0.0796222 0.0176936 0.0480791 0.251392 
-0.00817654 0.0505748 0.251392 -0.0145768 0.049114 0.251392 -0.0145768 0.049114 0.0796222 
-0.00817654 0.0505748 0.0796222 -0.00817654 0.0505748 0.251392 -0.0145768 0.049114 0.0796222 
0.0114001 0.049947 0.251392 0.0049194 0.0509947 0.0796222 0.0114001 0.049947 0.0796222 
0.0049194 0.0509947 0.251392 0.0049194 0.0509947 0.0796222 0.0114001 0.049947 0.251392 
-0.00164205 0.0512051 0.251392 -0.00817654 0.0505748 0.251392 -0.00817654 0.0505748 0.0796222 
-0.00164205 0.0512051 0.0796222 -0.00164205 0.0512051 0.251392 -0.00817654 0.0505748 0.0796222 
0.0049194 0.0509947 0.251392 -0.00164205 0.0512051 0.0796222 0.0049194 0.0509947 0.0796222 
-0.00164205 0.0512051 0.251392 -0.00164205 0.0512051 0.0796222 0.0049194 0.0509947 0.251392 

POLYGONS 147 588
3 0 1 2 
3 3 4 5 
3 6 7 8 
3 9 10 11 
3 12 13 14 
3 15 16 17 
3 18 19 20 
3 21 22 23 
3 24 25 26 
3 27 28 29 
3 30 31 32 
3 33 34 35 
3 36 37 38 
3 39 40 41 
3 42 43 44 
3 45 46 47 
3 48 49 50 
3 51 52 53 
3 54 55 56 
3 57 58 59 
3 60 61 62 
3 63 64 65 
3 66 67 68 
3 69 70 71 
3 72 73 74 
3 75 76 77 
3 78 79 80 
3 81 82 83 
3 84 85 86 
3 87 88 89 
3 90 91 92 
3 93 94 95 
3 96 97 98 
3 99 100 101 
3 102 103 104 
3 105 106 107 
3 108 109 110 
3 111 112 113 
3 114 115 116 
3 117 118 119 
3 120 121 122 
3 123 124 125 
3 126 127 128 
3 129 130 131 
3 132 133 134 
3 135 136 137 
3 138 139 140 
3 141 142 143 
3 144 145 146 
3 147 148 149 
3 150 151 152 
3 153 154 155 
3 156 157 158 
3 159 160 161 
3 162 163 164 
3 165 166 167 
3 168 169 170 
3 171 172 173 
3 174 175 176 
3 177 178 179 
3 180 181 182 
3 183 184 185 
3 186 187 188 
3 189 190 191 
3 192 193 194 
3 195 196 197 
3 198 199 200 
3 201 202 203 
3 204 205 206 
3 207 208 209 
3 210 211 212 
3 213 214 215 
3 216 217 218 
3 219 220 221 
3 222 223 224 
3 225 226 227 
3 228 229 230 
3 231 232 233 
3 234 235 236 
3 237 238 239 
3 240 241 242 
3 243 244 245 
3 246 247 248 
3 249 250 251 
3 252 253 254 
3 255 256 257 
3 258 259 260 
3 261 262 263 
3 264 265 266 
3 267 268 269 
3 270 271 272 
3 273 274 275 
3 276 277 278 
3 279 280 281 
3 282 283 284 
3 285 286 287 
3 288 289 290 
3 291 292 293 
3 294 295 296 
3 297 298 299 
3 300 301 302 
3 303 304 305 
3 306 307 308 
3 309 310 311 
3 312 313 314 
3 315 316 317 
3 318 319 320 
3 321 322 323 
3 324 325 326 
3 327 328 329 
3 330 331 332 
3 333 334 335 
3 336 337 338 
3 339 340 341 
3 342 343 344 
3 345 346 347 
3 348 349 350 
3 351 352 353 
3 354 355 356 
3 357 358 359 
3 360 361 362 
3 363 364 365 
3 366 367 368 
3 369 370 371 
3 372 373 374 
3 375 376 377 
3 378 379 380 
3 381 382 383 
3 384 385 386 
3 387 388 389 
3 390 391 392 
3 393 394 395 
3 396 397 398 
3 399 400 401 
3 402 403 404 
3 405 406 407 
3 408 409 410 
3 411 412 413 
3 414 415 416 
3 417 418 419 
3 420 421 422 
3 423 424 425 
3 426 427 428 
3 429 430 431 
3 432 433 434 
3 435 436 437 
3 438 439 440 

CELL_DATA 147
FIELD FieldData 3
normal_stress_average 1 147 double
0 0 0 35.8538 21.7614 0 0 4.13204 0 
0 0 7.20094 0 3.98545 0 0 0 8.46374 
0 4.13205 0 0 0 2.06602 0 0 0 
0 38.395 31.8621 0 20.7782 0 0 0 4.13293 
2.06483 190.168 0 0 0 15.763 0.129972 15.4029 0 
0 0 0 0 227.576 0 0 0 15.2927 
0 12.3709 0 0 0 74.3549 0 269.202 0 
0 0 9.56323 0 0 0 0 0 3.23765 
-0 285.772 -0 0 0 6.32469 134.24 10.9585 27.3307 
0 16.2514 2.06602 23.2097 73.5256 0.103342 260.822 9.48524 593.717 
14.7344 4.94867 8.25581 18.2898 2.42343 0.737279 18.0629 19.663 846.707 
21.4072 1352.01 -0 -0 0 0.365588 -0 -0 0 
0 0 -0 0 0 0 -0 0 0 
0 -0 0 0 0 -0 0 2.08797 0 
-0 0 0 18.1766 -0 0 0 3.1469 -0 
0 0 0 -0 0 0 0 -0 0 
0 0 -0 
shear_stress_average 1 147 double
0 0 0 4.87976 0.353343 0 0 3.35274e-11 0 
0 0 2.53718 0 0.974658 0 0 0 0.076766 
0 7.3023e-14 0 0 0 1.08377e-14 0 0 0 
0 8.92061 10.8329 0 0.00395917 0 0 0 8.39165e-07 
1.03241 70.1312 0 0 0 1.12064e-06 0.0649861 0.363571 0 
0 0 0 0 0.365273 0 0 0 5.19666 
0 0.996928 0 0 0 9.97217 0 115.493 0 
0 0 1.3121e-05 0 0 0 0 0 0.585813 
0 141.853 0 0 0 0.973222 10.4356 0.00126268 0.836923 
0 0.00231106 1.77502e-11 0.0140427 8.15914 0.011688 17.3306 3.7037 34.4291 
1.55155 1.4414 1.0345 8.11189 0.00670324 0.368639 4.48125 0.0517399 22.5417 
10.7036 123.819 0 0 0 0.182794 0 0 0 
0 0 0 0 0 0 0 0 0 
0 0 0 0 0 0 0 0.228907 0 
0 0 0 3.46815 0 0 0 1.57345 0 
0 0 0 0 0 0 0 0 0 
0 0 0 
wear 1 147 double
0.0490323 0 0.0221011 0.384292 0.647865 0 0.0243018 0.795787 0 
0 0.00960038 0.386939 0.0458554 0.907142 0 3.00745e-05 0.0253512 0.173036 
0.0102379 0.506958 0 0.00483757 0.000110106 0.856721 0.00625509 0.736752 0 
0 0.00150879 0.849202 0.0405188 0.214779 0 0.000158309 0.0502606 0.759417 
0.00793363 0.449749 0 0 0.0259786 0.319844 0.00742734 0.279115 0.000992964 
0 0.0336044 0.765713 0.0147779 0.318496 0 0 0.0715112 0.61649 
0.00808734 0.489732 0 0 0.00381518 0.550245 0.00238611 0.352112 0 
0 0.000853649 0.322403 0.0366333 0.977121 0 0 0.0113697 0.770039 
0.0675277 0.696963 0 0 0.0424579 0.764542 0.312453 0.63446 0.702893 
1.08809 0.736194 0.87469 0.121003 0.745608 0.821231 0.919124 0.505065 0.231936 
0.293171 0.975341 0.457598 0.591595 0.695025 0.495456 0.27719 0.512176 0.220844 
0.585785 0.886003 0.00214736 0 0 0.0163975 0.00868592 0 9.20155e-09 
0.0280555 0.00222362 0 0 0.0223015 0.0378407 0 0 0.0128709 
0.0206025 0.000239265 0.000372141 0.0910755 0.00233997 0 0.00544443 0.00572321 0.021331 
0 0 0.00145873 0.0035968 7.74993e-06 0 0.0130297 0.043878 0 
0 0.00878592 0.00832225 0 0 0.040617 0.0171595 0 0 
0.0168813 0.0184157 0.00763918 
