# vtk DataFile Version 4.0
Generated by LIGGGHTS
ASCII
DATASET POLYDATA
POINTS 321 float
-0.0312444 -0.0995777 0.0114983 -0.0259838 -0.0605229 0.0114983 -0.00753046 -0.0577156 0.0114983 
0.056807 -0.0527514 0.0114983 -0.0173246 -0.0496645 0.0119278 0.00823828 -0.048706 0.0114983 
0.029034 -0.049552 0.0114983 -0.0136654 -0.04591 0.0115669 -0.00310653 -0.0472197 0.0114983 
-0.0097795 -0.0424101 0.0114983 0.0211716 -0.0408436 0.0114983 -0.0526034 -0.0351144 0.0114983 
-0.0418406 -0.0354696 0.0114983 -0.0185806 -0.0367972 0.0114983 -0.0145164 -0.0353568 0.0114983 
0.0164888 -0.0341365 0.0114983 0.0303799 -0.0342185 0.0114983 -0.0509091 -0.0305862 0.0114983 
-0.0448827 -0.0310182 0.0114983 0.0117526 -0.0324104 0.0114983 0.0162186 -0.0309344 0.0114983 
-0.048361 -0.0272212 0.011496 -0.000363929 -0.0275058 0.0114994 0.014221 -0.0285687 0.0114984 
0.021377 -0.029138 0.0117741 -0.0508739 -0.0255414 0.0114983 -0.0236031 -0.0265344 0.0116835 
-0.0129096 -0.0231336 0.0114983 -0.00319654 -0.025818 0.0115208 0.00161322 -0.0252917 0.0119543 
0.0162866 -0.0250646 0.0114983 -0.0229098 -0.0222611 0.0115509 0.0210378 -0.0205466 0.0114985 
0.0343177 -0.0228459 0.0114983 -0.0151259 -0.0178053 0.0121572 -0.00450953 -0.0174133 0.0118764 
-0.0015392 -0.0180579 0.0114983 0.0143032 -0.0183196 0.0115206 0.0439065 -0.0185192 0.0114983 
-0.0230828 -0.0145744 0.0114983 -0.0204215 -0.0130448 0.0114983 -0.0168629 -0.0150983 0.0114983 
-0.013466 -0.0126618 0.0121652 -0.00861094 -0.0149581 0.0116526 0.0211086 -0.0161078 0.0114983 
-0.0279637 -0.0100957 0.0115048 -0.0102573 -0.0115823 0.011543 -0.00519315 -0.0108523 0.0127728 
0.0400779 -0.0116589 0.0115458 -0.0326367 -0.00773595 0.0114983 -0.02679 -0.00618367 0.0114983 
-0.0026418 -0.00537702 0.0115021 -0.0300897 -0.00535526 0.0114983 -0.0235727 -0.00409395 0.0114983 
-0.0153387 -0.00237459 0.0114983 -0.00617973 -0.00423107 0.0114983 0.00098957 -0.003812 0.0116181 
-0.00201535 -0.00245526 0.0115 0.00476777 -0.00266084 0.0116524 0.0139351 -0.00522091 0.0114983 
0.019212 -0.00315704 0.0114983 -0.0337547 -0.000997849 0.0114985 0.00750776 0.0012493 0.0114983 
0.0281426 0.000574698 0.0114983 -0.0248388 0.00411374 0.0114983 -0.0214104 0.00580599 0.0115177 
0.00273097 0.00117343 0.0114983 0.0147155 0.00568777 0.011598 -0.0399228 0.00981005 0.0114983 
-0.0211101 0.00960451 0.012241 -0.00489341 0.0120889 0.0116746 0.0220385 0.0106184 0.0114983 
0.0351461 0.0129789 0.0118031 -0.0434164 0.0133263 0.0114983 -0.0332717 0.0145679 0.0114968 
-0.0135655 0.0149756 0.0114983 -0.0067021 0.0146956 0.011499 0.00753448 0.0146768 0.0114973 
0.0114911 0.0145681 0.0115052 0.0209316 0.0160247 0.011498 -0.0490862 0.0195639 0.0117052 
-0.0424918 0.0163576 0.0114983 -0.0258571 0.0157117 0.0114983 -0.021562 0.0185239 0.0119841 
-0.00993208 0.0173534 0.0114983 0.0123165 0.0182941 0.0117445 0.0231117 0.0180992 0.0114983 
0.00132526 0.0204949 0.0114983 0.0266884 0.0229267 0.0114983 0.00252065 0.0251427 0.0114983 
0.0106675 0.0237023 0.0114983 0.035062 0.0254727 0.0114983 0.0401304 0.023967 0.0114983 
-0.0169808 0.0268061 0.0114983 0.0255006 0.0284812 0.0114982 0.0319957 0.0278816 0.0115653 
-0.00788366 0.0314822 0.0114972 0.00428832 0.0305963 0.0114983 0.0128117 0.0336707 0.0114984 
0.0253073 0.0317237 0.0114984 0.0316334 0.0319039 0.0114983 -0.000310406 0.0359104 0.0114983 
0.0334077 0.0369492 0.011498 -0.0444171 0.0419615 0.0114983 -0.0169701 0.0401593 0.0114983 
-0.00566804 0.0379381 0.0114983 0.0168034 0.0392432 0.0114983 0.0214778 0.0421099 0.0114983 
-0.0884531 0.0414947 0.0115893 -0.0077384 0.0432771 0.0114983 0.0132463 0.0414759 0.0116866 
-0.0139038 0.0454461 0.0114983 0.00459902 0.0461406 0.0114983 0.00947188 0.0522109 0.0114983 
0.0457055 0.0550435 0.0114983 0.0829636 0.0903701 0.0114983 -0.0048977 -0.0628321 0.0124961 
0.0248521 -0.0494764 0.0124961 0.0161911 -0.0444121 0.0124961 -0.0133153 -0.0424875 0.0138022 
-0.0267314 -0.0356056 0.0124961 -0.00796805 -0.0355936 0.0126244 -0.0106019 -0.0304828 0.0124961 
0.000825592 -0.0321601 0.0124961 -0.0153104 -0.0291302 0.011939 -0.0057875 -0.0287063 0.0124961 
-0.0555921 -0.0254061 0.0124999 -0.0015627 -0.0248998 0.013861 0.00770306 -0.026122 0.0126776 
0.0189654 -0.0256529 0.0138756 -0.0576569 -0.0208684 0.0124928 -0.0166531 -0.0208856 0.0130854 
-0.0191771 -0.0226198 0.0114517 -0.00943794 -0.0197845 0.0125618 -0.00448582 -0.0214358 0.0124963 
0.000542939 -0.0213541 0.0124909 0.00518679 -0.0222716 0.0115799 0.00896438 -0.0205767 0.0127584 
0.0155991 -0.0205886 0.0131843 0.0303504 -0.0203926 0.0124566 0.0039598 -0.0179683 0.0144899 
0.0108987 -0.0182219 0.0125287 0.0148343 -0.0193734 0.0163049 -0.0295254 -0.0146463 0.0124961 
-0.0174438 -0.0176129 0.0160267 -0.00525531 -0.0144136 0.0123529 -0.00139248 -0.0132256 0.0124967 
0.0164078 -0.0131453 0.0128753 0.0299982 -0.0147639 0.0124962 -0.0226933 -0.00920736 0.0124961 
-0.0136425 -0.00892223 0.0139468 0.00822069 -0.0121973 0.0125038 0.0138786 -0.0103861 0.0124561 
0.0312678 -0.00985939 0.0127071 -0.0526266 -0.00525912 0.0119058 -0.0438927 -0.00715771 0.0129985 
-0.0164177 -0.00610721 0.0145301 -0.00993907 -0.00583345 0.0124961 -0.00019437 -0.00832504 0.0126502 
0.00509649 -0.0080897 0.0124614 0.0170831 -0.00525834 0.0129366 -0.0402719 -0.00223514 0.0126034 
-0.0194035 -0.00386593 0.0124961 -0.000239702 -0.00421233 0.0155871 0.0247205 -0.00155773 0.0124985 
0.047383 -0.00349769 0.0132194 0.0611618 -0.00298081 0.0124961 -0.0547468 9.73046e-05 0.0124961 
-0.0266667 -0.000200539 0.0124961 -0.0136384 0.000578383 0.0140762 -0.00989284 -0.000890733 0.0146957 
-0.00645276 -0.000555011 0.0116277 -0.00304617 0.00133944 0.0124981 0.0155976 -0.00155196 0.0124954 
0.0193823 -0.000621321 0.0137084 -0.01695 0.00525873 0.0115864 -0.0111681 0.00388245 0.0125022 
0.014049 0.00254982 0.0118242 -0.0190371 0.00683402 0.0133846 -0.0146153 0.00867848 0.0127894 
0.00652063 0.00481181 0.0131823 0.0107729 0.00787539 0.0125253 -0.0250502 0.0115812 0.0124961 
-0.00945498 0.010291 0.0117006 -0.0029319 0.0110997 0.013922 0.00159009 0.00944818 0.0128727 
0.0102213 0.0118463 0.0116136 0.0152213 0.0104475 0.0124961 -0.0780094 0.0163257 0.0127468 
-0.0351595 0.0137431 0.0153374 -0.0208751 0.0143863 0.0125031 0.0172128 0.0151671 0.0126919 
0.0251041 0.0144902 0.0124964 -0.0619494 0.0170105 0.0124961 -0.0301612 0.0159497 0.0135925 
-0.0236249 0.0193564 0.0143388 -0.0174443 0.0179494 0.0142914 -0.0149207 0.0167738 0.015696 
-0.00578003 0.016809 0.013617 -0.00176697 0.0162782 0.0138721 0.00307501 0.0163049 0.0124971 
0.00721486 0.0191144 0.0125072 0.0088038 0.0163778 0.0152336 0.019743 0.0188169 0.0120181 
-0.0365233 0.0216534 0.0126089 -0.0167039 0.0217806 0.0115633 -0.00635437 0.0228313 0.0124958 
0.0130102 0.0216987 0.0121455 0.0310442 0.020038 0.0124961 -0.0410651 0.0255822 0.0124961 
-0.0324515 0.0252378 0.0141792 -0.0237594 0.0247472 0.0160186 -0.0109029 0.0240731 0.0141676 
-0.00122415 0.0241617 0.0124961 0.00694777 0.0236745 0.0131944 0.0177877 0.0236257 0.0152761 
-0.0111821 0.0284411 0.0124715 0.00674437 0.0269263 0.0121703 0.00993741 0.0293698 0.0124961 
-0.0454253 0.0326581 0.0115765 -0.00391735 0.0311967 0.0129146 -0.0148424 0.0360381 0.012496 
0.00372242 0.0347004 0.0124961 0.00910359 0.035024 0.0124961 -0.0108643 0.0405924 0.0124961 
0.0291666 0.0456635 0.0124961 -0.00695705 0.0691341 0.0124961 0.0203304 0.0934207 0.0128301 
-0.00148817 -0.0312902 0.0159719 -0.0221336 -0.0245767 0.0151153 0.00204954 -0.0266068 0.0171059 
0.0247245 -0.0228134 0.0197342 0.0154615 -0.0233592 0.0188071 -0.0261244 -0.0185384 0.0150031 
-0.00908605 -0.0157659 0.0158494 0.00849038 -0.0165959 0.0135987 0.0166429 -0.0134896 0.0174621 
-0.00628256 -0.00949369 0.0163395 0.0110392 -0.0118003 0.0176465 0.0134633 -0.00474305 0.0167092 
0.0206917 -0.00450646 0.018741 -0.00962875 -0.00445643 0.0175853 -0.00676275 0.00150368 0.0140557 
0.0042984 -0.000349233 0.0167893 0.0131245 6.06123e-05 0.0181963 -0.0240862 0.00242695 0.0194128 
-0.0127173 0.00313359 0.0165833 0.0112246 0.00349802 0.0150538 0.0247441 0.0036229 0.0146881 
-0.0172003 0.00805989 0.0162012 -0.0114639 0.00758882 0.0149985 -0.00842374 0.00543209 0.016449 
0.0158455 0.00689882 0.0164407 0.0037586 0.00741441 0.0178926 0.00187521 0.0154115 0.0174674 
0.0200063 0.0147161 0.0168037 -0.00377382 0.0185034 0.0183308 0.000773144 0.0191614 0.0164976 
-0.0108053 0.0197231 0.0174071 0.0132205 0.0248794 0.018753 -0.00119649 0.0277693 0.0192161 
-0.0120547 -0.0204926 0.0159774 -0.0254406 -0.00998382 0.0193768 -0.0182231 -0.00698064 0.0179911 
-0.000316235 -0.000429168 0.0181359 -0.00325914 0.00521953 0.0182576 -0.00871402 0.010929 0.020902 
0.00540763 0.0097457 0.0222439 0.0182072 0.0120402 0.0210772 -0.0195445 0.0136429 0.0190234 
-0.0137275 0.0153452 0.0219131 -0.0077539 -0.0244649 0.0161094 0.029953 -0.0245817 0.0238302 
-0.0214431 -0.0129004 0.0178678 -0.00978991 -0.00861141 0.0212592 -0.00284052 -0.00905254 0.0198719 
0.00309046 -0.00510741 0.0242921 0.00667702 -0.000508414 0.0212629 0.00347279 -0.00965267 0.0189885 
0.0167613 0.00793733 0.0213768 -0.0249529 0.0128217 0.0195849 -0.0226197 -0.0224747 0.0239032 
-0.0139116 -0.0124829 0.0256381 -0.0210783 -0.000875266 0.0258754 -0.00474934 0.00897812 0.0251959 
0.00106863 0.0114536 0.0259693 0.0103786 0.0109058 0.0234257 0.0189468 -0.0201549 0.0265962 
-0.00116238 -0.0191182 0.0295384 0.0157285 -0.0108071 0.0296965 -0.0143444 0.00422488 0.0293692 
0.0232488 0.0048327 0.0285525 -0.0183288 -0.0179779 0.0310409 0.0172082 -0.00166197 0.0301872 
-0.000143764 -0.0151451 0.0360857 0.00923829 -0.00302498 0.0337653 0.0153089 -0.0219343 0.0372458 
-0.00561877 -0.0122823 0.0394822 0.00319508 0.00277879 0.0398981 0.0123546 0.00452564 0.0401331 
0.0117463 0.0152384 0.0403761 0.00282469 -0.0167926 0.0440655 -0.00395519 -0.0102035 0.0418887 
0.0206628 -0.00346161 0.0414394 0.0236013 0.00279191 0.044421 0.00985835 0.0103118 0.0439964 
0.0144772 0.0221553 0.0436123 0.00518825 0.00375767 0.0456822 0.0249181 0.013722 0.0472276 
0.0193231 -0.023851 0.0491974 -0.00502806 -0.0157198 0.051141 -0.0101071 -0.00289177 0.0502867 
-0.00043388 0.00779732 0.0497818 -0.0153621 0.00655737 0.0526897 -0.0190179 0.0108882 0.0540927 
-0.0116715 0.0160164 0.0519733 -0.0219175 0.021174 0.053438 -0.00523569 -0.0161547 0.0567849 
-0.0140427 -0.0151392 0.0573181 0.00795506 0.00738133 0.0564147 0.00536746 0.024386 0.0566597 

VERTICES 321 642
1 0 
1 1 
1 2 
1 3 
1 4 
1 5 
1 6 
1 7 
1 8 
1 9 
1 10 
1 11 
1 12 
1 13 
1 14 
1 15 
1 16 
1 17 
1 18 
1 19 
1 20 
1 21 
1 22 
1 23 
1 24 
1 25 
1 26 
1 27 
1 28 
1 29 
1 30 
1 31 
1 32 
1 33 
1 34 
1 35 
1 36 
1 37 
1 38 
1 39 
1 40 
1 41 
1 42 
1 43 
1 44 
1 45 
1 46 
1 47 
1 48 
1 49 
1 50 
1 51 
1 52 
1 53 
1 54 
1 55 
1 56 
1 57 
1 58 
1 59 
1 60 
1 61 
1 62 
1 63 
1 64 
1 65 
1 66 
1 67 
1 68 
1 69 
1 70 
1 71 
1 72 
1 73 
1 74 
1 75 
1 76 
1 77 
1 78 
1 79 
1 80 
1 81 
1 82 
1 83 
1 84 
1 85 
1 86 
1 87 
1 88 
1 89 
1 90 
1 91 
1 92 
1 93 
1 94 
1 95 
1 96 
1 97 
1 98 
1 99 
1 100 
1 101 
1 102 
1 103 
1 104 
1 105 
1 106 
1 107 
1 108 
1 109 
1 110 
1 111 
1 112 
1 113 
1 114 
1 115 
1 116 
1 117 
1 118 
1 119 
1 120 
1 121 
1 122 
1 123 
1 124 
1 125 
1 126 
1 127 
1 128 
1 129 
1 130 
1 131 
1 132 
1 133 
1 134 
1 135 
1 136 
1 137 
1 138 
1 139 
1 140 
1 141 
1 142 
1 143 
1 144 
1 145 
1 146 
1 147 
1 148 
1 149 
1 150 
1 151 
1 152 
1 153 
1 154 
1 155 
1 156 
1 157 
1 158 
1 159 
1 160 
1 161 
1 162 
1 163 
1 164 
1 165 
1 166 
1 167 
1 168 
1 169 
1 170 
1 171 
1 172 
1 173 
1 174 
1 175 
1 176 
1 177 
1 178 
1 179 
1 180 
1 181 
1 182 
1 183 
1 184 
1 185 
1 186 
1 187 
1 188 
1 189 
1 190 
1 191 
1 192 
1 193 
1 194 
1 195 
1 196 
1 197 
1 198 
1 199 
1 200 
1 201 
1 202 
1 203 
1 204 
1 205 
1 206 
1 207 
1 208 
1 209 
1 210 
1 211 
1 212 
1 213 
1 214 
1 215 
1 216 
1 217 
1 218 
1 219 
1 220 
1 221 
1 222 
1 223 
1 224 
1 225 
1 226 
1 227 
1 228 
1 229 
1 230 
1 231 
1 232 
1 233 
1 234 
1 235 
1 236 
1 237 
1 238 
1 239 
1 240 
1 241 
1 242 
1 243 
1 244 
1 245 
1 246 
1 247 
1 248 
1 249 
1 250 
1 251 
1 252 
1 253 
1 254 
1 255 
1 256 
1 257 
1 258 
1 259 
1 260 
1 261 
1 262 
1 263 
1 264 
1 265 
1 266 
1 267 
1 268 
1 269 
1 270 
1 271 
1 272 
1 273 
1 274 
1 275 
1 276 
1 277 
1 278 
1 279 
1 280 
1 281 
1 282 
1 283 
1 284 
1 285 
1 286 
1 287 
1 288 
1 289 
1 290 
1 291 
1 292 
1 293 
1 294 
1 295 
1 296 
1 297 
1 298 
1 299 
1 300 
1 301 
1 302 
1 303 
1 304 
1 305 
1 306 
1 307 
1 308 
1 309 
1 310 
1 311 
1 312 
1 313 
1 314 
1 315 
1 316 
1 317 
1 318 
1 319 
1 320 

POINT_DATA 321
FIELD FieldData 7
id 1 321 int
48 82 89 12 160 77 52 6 59 
73 50 71 137 83 90 173 19 47 
9 112 76 107 85 110 200 45 252 
32 18 8 189 179 97 11 218 63 
152 249 23 84 96 202 36 127 164 
211 25 172 125 64 205 146 153 174 
162 126 123 185 244 101 136 114 121 
201 61 204 72 198 33 102 140 165 
184 133 86 60 99 148 70 49 177 
122 178 21 38 171 22 100 134 188 
98 62 111 51 223 159 58 135 175 
39 34 26 149 124 138 7 95 187 
57 147 113 13 24 35 166 46 30 
105 2 206 4 168 92 119 229 142 
16 161 68 251 40 242 268 167 42 
154 192 267 10 132 156 75 108 67 
262 240 15 109 29 181 14 129 214 
3 217 157 226 158 141 235 139 91 
131 143 207 144 79 94 41 239 250 
150 81 115 213 255 55 163 253 183 
27 5 106 199 151 116 215 17 130 
210 69 53 93 117 169 212 269 231 
20 103 44 182 270 87 66 88 80 
65 54 43 209 256 196 28 254 241 
191 216 128 176 194 1 104 78 118 
31 56 37 243 258 222 219 265 197 
261 263 247 193 260 248 232 145 266 
246 170 227 228 180 220 264 186 195 
221 259 230 225 238 224 237 234 233 
282 74 155 275 190 245 272 257 203 
236 281 208 274 277 280 120 279 278 
273 276 283 290 291 293 296 271 292 
285 295 286 287 289 284 294 288 307 
308 297 309 306 300 303 305 302 304 
299 298 301 319 313 315 318 311 316 
321 317 314 320 310 312 
type 1 321 int
1 1 1 1 1 1 1 1 1 
1 1 1 1 1 1 1 1 1 
1 1 1 1 1 1 1 1 1 
1 1 1 1 1 1 1 1 1 
1 1 1 1 1 1 1 1 1 
1 1 1 1 1 1 1 1 1 
1 1 1 1 1 1 1 1 1 
1 1 1 1 1 1 1 1 1 
1 1 1 1 1 1 1 1 1 
1 1 1 1 1 1 1 1 1 
1 1 1 1 1 1 1 1 1 
1 1 1 1 1 1 1 1 1 
1 1 1 1 1 1 1 1 1 
1 1 1 1 1 1 1 1 1 
1 1 1 1 1 1 1 1 1 
1 1 1 1 1 1 1 1 1 
1 1 1 1 1 1 1 1 1 
1 1 1 1 1 1 1 1 1 
1 1 1 1 1 1 1 1 1 
1 1 1 1 1 1 1 1 1 
1 1 1 1 1 1 1 1 1 
1 1 1 1 1 1 1 1 1 
1 1 1 1 1 1 1 1 1 
1 1 1 1 1 1 1 1 1 
1 1 1 1 1 1 1 1 1 
1 1 1 1 1 1 1 1 1 
1 1 1 1 1 1 1 1 1 
1 1 1 1 1 1 1 1 1 
1 1 1 1 1 1 1 1 1 
1 1 1 1 1 1 1 1 1 
1 1 1 1 1 1 1 1 1 
1 1 1 1 1 1 1 1 1 
1 1 1 1 1 1 1 1 1 
1 1 1 1 1 1 1 1 1 
1 1 1 1 1 1 1 1 1 
1 1 1 1 1 1 
i 3 321 int
0 0 0 0 0 0 0 0 0 
0 0 0 0 0 0 0 0 0 
0 0 0 0 0 0 0 0 0 
0 0 0 0 0 0 0 0 0 
0 0 0 0 0 0 0 0 0 
0 0 0 0 0 0 0 0 0 
0 0 0 0 0 0 0 0 0 
0 0 0 0 0 0 0 0 0 
0 0 0 0 0 0 0 0 0 
0 0 0 0 0 0 0 0 0 
0 0 0 0 0 0 0 0 0 
0 0 0 0 0 0 0 0 0 
0 0 0 0 0 0 0 0 0 
0 0 0 0 0 0 0 0 0 
0 0 0 0 0 0 0 0 0 
0 0 0 0 0 0 0 0 0 
0 0 0 0 0 0 0 0 0 
0 0 0 0 0 0 0 0 0 
0 0 0 0 0 0 0 0 0 
0 0 0 0 0 0 0 0 0 
0 0 0 0 0 0 0 0 0 
0 0 0 0 0 0 0 0 0 
0 0 0 0 0 0 0 0 0 
0 0 0 0 0 0 0 0 0 
0 0 0 0 0 0 0 0 0 
0 0 0 0 0 0 0 0 0 
0 0 0 0 0 0 0 0 0 
0 0 0 0 0 0 0 0 0 
0 0 0 0 0 0 0 0 0 
0 0 0 0 0 0 0 0 0 
0 0 0 0 0 0 0 0 0 
0 0 0 0 0 0 0 0 0 
0 0 0 0 0 0 0 0 0 
0 0 0 0 0 0 0 0 0 
0 0 0 0 0 0 0 0 0 
0 0 0 0 0 0 0 0 0 
0 0 0 0 0 0 0 0 0 
0 0 0 0 0 0 0 0 0 
0 0 0 0 0 0 0 0 0 
0 0 0 0 0 0 0 0 0 
0 0 0 0 0 0 0 0 0 
0 0 0 0 0 0 0 0 0 
0 0 0 0 0 0 0 0 0 
0 0 0 0 0 0 0 0 0 
0 0 0 0 0 0 0 0 0 
0 0 0 0 0 0 0 0 0 
0 0 0 0 0 0 0 0 0 
0 0 0 0 0 0 0 0 0 
0 0 0 0 0 0 0 0 0 
0 0 0 0 0 0 0 0 0 
0 0 0 0 0 0 0 0 0 
0 0 0 0 0 0 0 0 0 
0 0 0 0 0 0 0 0 0 
0 0 0 0 0 0 0 0 0 
0 0 0 0 0 0 0 0 0 
0 0 0 0 0 0 0 0 0 
0 0 0 0 0 0 0 0 0 
0 0 0 0 0 0 0 0 0 
0 0 0 0 0 0 0 0 0 
0 0 0 0 0 0 0 0 0 
0 0 0 0 0 0 0 0 0 
0 0 0 0 0 0 0 0 0 
0 0 0 0 0 0 0 0 0 
0 0 0 0 0 0 0 0 0 
0 0 0 0 0 0 0 0 0 
0 0 0 0 0 0 0 0 0 
0 0 0 0 0 0 0 0 0 
0 0 0 0 0 0 0 0 0 
0 0 0 0 0 0 0 0 0 
0 0 0 0 0 0 0 0 0 
0 0 0 0 0 0 0 0 0 
0 0 0 0 0 0 0 0 0 
0 0 0 0 0 0 0 0 0 
0 0 0 0 0 0 0 0 0 
0 0 0 0 0 0 0 0 0 
0 0 0 0 0 0 0 0 0 
0 0 0 0 0 0 0 0 0 
0 0 0 0 0 0 0 0 0 
0 0 0 0 0 0 0 0 0 
0 0 0 0 0 0 0 0 0 
0 0 0 0 0 0 0 0 0 
0 0 0 0 0 0 0 0 0 
0 0 0 0 0 0 0 0 0 
0 0 0 0 0 0 0 0 0 
0 0 0 0 0 0 0 0 0 
0 0 0 0 0 0 0 0 0 
0 0 0 0 0 0 0 0 0 
0 0 0 0 0 0 0 0 0 
0 0 0 0 0 0 0 0 0 
0 0 0 0 0 0 0 0 0 
0 0 0 0 0 0 0 0 0 
0 0 0 0 0 0 0 0 0 
0 0 0 0 0 0 0 0 0 
0 0 0 0 0 0 0 0 0 
0 0 0 0 0 0 0 0 0 
0 0 0 0 0 0 0 0 0 
0 0 0 0 0 0 0 0 0 
0 0 0 0 0 0 0 0 0 
0 0 0 0 0 0 0 0 0 
0 0 0 0 0 0 0 0 0 
0 0 0 0 0 0 0 0 0 
0 0 0 0 0 0 0 0 0 
0 0 0 0 0 0 0 0 0 
0 0 0 0 0 0 0 0 0 
0 0 0 0 0 0 0 0 0 
0 0 0 0 0 0 0 0 0 
0 0 0 0 0 0 0 0 0 

v 3 321 double
-0.176594 -0.47915 -1.48249e-14 -0.116053 -0.28278 -5.43318e-14 -0.0537828 -0.273036 1.30796e-07 
0.220331 -0.255345 1.67805e-14 -0.00763095 -0.376751 -0.0700365 0.0283574 -0.202639 4.98533e-11 
0.119977 -0.23488 8.87996e-15 -0.129172 -0.285567 0.0814634 0.0126684 -0.152414 -1.48241e-14 
-0.100877 -0.194417 9.92967e-16 0.116578 -0.107457 6.89003e-12 -0.235284 -0.077831 -4.64296e-14 
-0.123107 -0.145498 -2.27271e-14 0.00673954 -0.119774 1.67805e-14 0.0271149 -0.0681782 7.99923e-14 
-0.0148818 -0.115352 -2.85898e-10 0.152919 -0.112596 7.99923e-14 -0.197534 -0.0544852 -2.27271e-14 
-0.186008 -0.169073 -8.59365e-14 0.104198 -0.19826 8.86882e-11 0.0411427 -0.0929344 -1.1199e-07 
-0.147474 -0.0621963 -0.0113776 -0.0902692 -0.151409 -0.000579489 0.0432691 -0.0776783 5.42914e-05 
0.043578 -0.108279 0.0560194 -0.165425 -0.0749523 -0.000141796 -0.130937 -0.272187 0.237329 
-0.0538335 -0.0108514 -5.07503e-12 -0.0204965 -0.0887746 -0.0134365 -0.0878395 -0.142697 -0.0171482 
0.0617411 -0.0610398 3.0856e-14 -0.208501 -0.0998494 0.118373 0.0986524 -0.0686987 0.0117035 
0.0627845 -0.0860195 -5.43318e-14 0.131781 0.129151 0.0762971 0.0500578 -0.0488301 0.0727917 
-0.0422779 -0.0560909 -0.00337469 0.475295 0.0743031 -0.171354 0.1155 -0.0691733 1.67805e-14 
-0.0354255 0.00937206 6.31482e-14 -0.0405305 0.0289204 -9.31443e-09 -0.00164827 0.0891408 -0.00174272 
0.0812912 0.145798 0.0543697 -0.00732156 0.146579 0.0423143 0.0972837 -0.0653199 -0.000550076 
-0.114306 -0.0367512 -0.00707885 -0.0804658 -0.0437625 0.00716703 0.0614069 -0.14252 -0.27767 
0.359298 -0.102177 -0.0045568 -0.115189 -0.0100952 4.04854e-14 -0.0899453 0.00337776 1.56028e-11 
-0.0764345 0.00744641 -0.00479356 -0.111066 -0.0260301 1.67805e-14 -0.0740364 0.092616 2.12567e-08 
-0.0847427 0.0238639 5.53874e-05 -0.084844 -0.0657817 4.23055e-14 0.00306796 -0.0499451 0.037431 
-0.0525749 -0.00935647 0.0109951 0.0730142 0.0157912 -0.0370927 0.0125825 -0.0372767 1.08241e-07 
0.075504 0.0433733 -9.04289e-06 -0.114509 -0.0345465 0.00249159 0.0171773 -0.0548602 -7.54107e-14 
0.103915 0.022506 -3.91248e-06 -0.133687 0.0178537 2.46827e-14 -0.200398 0.121588 -0.014293 
-0.0219035 -0.0994996 -7.94973e-08 0.020986 -0.0154438 0.010365 -0.300623 0.0750453 7.20909e-14 
-0.0614801 0.0433166 0.00570572 0.011766 0.0819918 0.0077726 0.136512 0.0797863 -2.42322e-08 
0.197223 0.263384 0.0218783 -0.295189 0.0635055 -4.64296e-14 -0.173164 0.0206946 0.0233834 
-0.147871 0.0832313 -6.08105e-08 -0.0258943 0.0868759 -0.000910646 0.051278 0.0620167 0.00325815 
0.0824464 -0.00386368 -0.0035468 0.0664481 0.065158 0.000201981 -0.305338 0.11849 -0.0585263 
-0.281724 0.0649005 -1.48249e-14 0.00635628 -0.111166 -4.29817e-10 -0.0587667 0.123598 -0.03581 
-0.0273572 0.0356537 -2.48343e-08 0.0868123 -0.00810086 0.0325588 0.0829773 0.0411878 -8.09732e-10 
0.0299969 0.0488402 -3.11706e-11 0.0407301 0.036698 1.42193e-08 -0.00521611 0.0812688 -0.00292841 
0.00404182 0.0705221 -9.27241e-07 0.233842 0.0996076 -5.26356e-07 0.204566 0.172638 7.99923e-14 
-0.0369078 0.0765737 -7.80351e-14 0.112124 0.0733965 -4.65798e-05 0.106419 0.085472 -0.00540139 
-0.11632 0.107612 0.000401403 -0.0220136 0.0868006 -2.13473e-05 0.0674931 0.110858 -8.48618e-05 
0.0897286 0.0922179 2.29001e-05 0.255167 0.172086 -1.52932e-06 0.0315768 0.0827791 -2.27271e-14 
0.276545 0.144192 0.000774297 -0.354086 0.271836 3.26e-14 -0.100144 0.153771 4.73e-09 
0.0165436 0.139171 -6.22323e-14 0.0931124 0.163339 -3.70329e-11 0.168411 0.321551 1.99115e-11 
0.0811203 0.158305 -0.0299402 0.0679132 0.212181 -8.97837e-11 -0.0336043 0.133714 0.00465688 
-0.0108942 0.229031 2.67824e-13 0.0455602 0.163079 9.77821e-16 0.0594002 0.201219 -7.01345e-14 
0.383859 0.461288 -1.63043e-14 0.416908 0.378014 7.20901e-14 -0.0526646 -0.211264 4.60462e-14 
0.111015 -0.25451 -4.68881e-14 0.0611484 -0.105131 -2.6223e-14 0.150797 -0.2193 0.184476 
-0.0750121 -0.177882 -3.13851e-14 -0.136593 -0.0691627 0.0821553 -0.0875223 -0.103649 2.16069e-05 
-0.112744 -0.201976 8.46578e-07 0.0272969 -0.239515 -0.109409 -0.101019 -0.0236827 -0.000157619 
-0.160568 -0.0775467 0.00393383 -0.0623483 -0.0879164 0.0244208 -0.0299448 -0.148811 -0.0142987 
-0.105658 -0.290324 0.222093 -0.240015 -0.0726695 -0.00173381 0.155105 -0.301791 -0.448526 
0.124893 -0.147469 0.299294 0.00331957 -0.0570317 0.0164024 -0.0899661 -0.0902119 0.00135761 
-0.0641866 -0.11564 -0.00545561 -0.0186457 -0.0668249 -0.258923 -0.0024102 0.00567478 -0.339497 
0.131186 -0.0222188 0.110017 0.0816105 -0.128765 0.109781 0.0821818 -0.200651 -0.0578597 
0.167005 -0.0473394 -0.332154 0.0267436 -0.156511 0.17472 -0.0777858 -0.0625263 -1.68932e-11 
-0.261968 -0.433742 0.13578 0.00680227 0.0480943 -0.143498 0.0317949 -0.017445 0.000728619 
-0.110958 -0.1156 -0.0740349 0.162543 -0.0130726 -0.000137779 -0.118013 0.0219185 -4.70033e-06 
0.0761854 0.0234458 0.0947266 -0.0254986 -0.0306921 -0.00841356 -0.135108 -0.0880113 -0.168329 
0.159096 0.0179561 -0.156095 -0.599297 0.0934637 -0.136966 -0.329627 -0.126228 -0.257233 
-0.0467502 0.0660449 -0.273215 -0.0683314 -0.0418801 9.28417e-05 -0.0907763 0.0269286 0.0293317 
0.0559526 0.0022116 -0.25367 0.0716082 -0.0242039 0.0601294 -0.163926 0.00576009 -0.0269599 
-0.0778105 0.00942293 2.10162e-06 -0.099024 -0.117018 0.0786401 0.00619945 0.112439 -0.002677 
0.210931 -0.216064 -0.0302698 0.256484 -0.00797417 -1.07378e-14 -0.271203 0.06235 4.08646e-14 
-0.114049 0.0563338 4.45416e-15 0.0704087 -0.053127 0.0982975 -0.110135 0.018472 -0.0592958 
-0.0421229 -0.113128 0.0155902 -0.0568424 -0.0379797 0.0046677 0.0298529 -0.0199336 0.00497936 
-0.0413799 0.178069 -0.149256 -0.265776 0.172254 0.104941 0.000190158 0.0168538 0.00051543 
-0.0015803 -0.00967619 -0.246159 -0.0402797 0.0492433 -0.0634105 -0.071399 0.0654061 -0.264678 
0.0845674 -0.116944 -0.0119569 0.000717779 0.113769 0.00635253 -0.10042 0.0835342 -5.47895e-05 
-0.0524759 -0.0944361 0.0761604 -0.102608 0.110596 0.0820378 -0.148384 -0.131357 0.0514085 
0.0717193 -0.00777594 0.0530992 0.0508143 0.0425284 7.26033e-06 -0.673333 0.205127 -0.0955672 
-0.294914 0.0762411 0.0270354 -0.0966423 0.0704176 0.0132353 0.0669035 0.0226985 -0.0277828 
0.140785 0.122362 7.34494e-05 -0.328783 -0.0330565 1.65423e-12 -0.0773666 -0.0105405 -0.0470523 
-0.146106 0.177567 -0.00982667 0.0482098 0.134785 0.00328266 0.10245 -0.0896323 -0.0100434 
-0.00403829 0.0143629 -0.0209415 0.0187748 0.0533147 -0.0491165 -0.0130264 0.0438151 -0.00410749 
-0.0202526 0.051571 0.00647221 -0.275146 -0.0115425 0.294886 0.0256723 0.122846 -0.182702 
-0.0799487 -0.0425825 0.0181963 0.0351306 0.19982 0.0808382 0.0354491 0.0646061 0.000229259 
0.0364398 0.054061 -0.119893 0.140235 0.0429512 3.55637e-08 -0.137124 0.0954131 0.000100915 
-0.184532 0.0635997 -0.0819638 0 0 0.254374 -0.00753793 0.0289966 -0.0922194 
0.0461497 0.105701 0.000640613 0.0134782 0.0824069 -0.00371643 -0.0536439 -0.0277724 0.0761616 
-0.337463 0.0968108 -0.0967022 0.0262316 0.0988516 -0.107127 0.0266887 0.101067 -1.46975e-07 
-0.302478 0.104922 0.088772 -0.127483 0.151538 -0.0255101 0.0386145 0.135418 0.000839936 
0.0384444 0.130084 -1.16106e-05 0.0231304 0.0418403 -7.78143e-06 -0.00170717 0.251353 -8.24759e-10 
0.173451 0.213103 -7.26818e-14 0.0746261 0.317827 7.70208e-14 -0.0156735 -0.166164 0.00357472 
-0.0476321 -0.239812 -0.000932877 0.102423 0.101379 0.283612 -0.111782 -0.0899299 0.0817972 
0 0 0.109302 0.0630948 -0.255459 0.383333 -0.0754246 0.113394 -0.349868 
-0.174273 -0.0177095 0.122137 -0.103788 -0.350024 -0.294032 0.176659 -0.0276735 0.0603268 
-0.0269665 -0.00379234 -0.195094 0.330818 -0.188566 0.124237 0.161965 0.143753 -0.148384 
0.0185535 0.164506 0.0125851 -0.169716 0.119653 0.00179676 -0.120631 0.183984 -0.0472138 
0.0254883 -0.280389 -0.321281 0.0855165 0.0668648 -0.0203404 0 0 0.0288053 
-0.470678 -0.0263334 0.00545847 0.0652285 0.00213679 -0.108436 0.172955 -0.0309291 -0.311487 
-0.0136193 0.172884 -0.118918 -0.205855 -0.0364497 -0.0705428 -0.279439 -0.120063 0.0265147 
0.0761837 -0.125711 -0.902676 0.042194 -0.273658 0.124101 -0.0216202 0.0217554 -0.120051 
0.0176717 0.199164 -0.150696 -0.0470029 -0.00276167 -0.0664852 0.0843937 0.0985282 -0.0577019 
0.0782578 0.0609187 0.16954 -0.05831 0.00418633 0.171483 0.188221 0.204398 -0.025434 
-0.494618 -0.704468 -0.511565 -0.100197 0.209393 -0.0331548 -0.0856978 0.119385 -0.216097 
-0.23796 0.191319 -0.0642127 0.132219 -0.128626 -0.242619 -0.299743 -0.0941763 0.0799082 
-0.124206 -0.0700987 -0.225341 -0.108588 0.328325 -0.157013 0 0 -0.0906741 
-0.285383 -0.0761457 0.1646 0 0 -1.30543 0.324403 -0.237805 0.00935682 
0 0 -1.29219 -0.540805 0.131915 0.146942 0.449667 0.0737898 -0.186823 
0.0434469 -0.0207217 -0.156989 0.315371 -0.223366 -0.0463943 0 0 -1.28366 
0.111795 0.135091 -0.651342 0 0 -1.27905 0 0 -1.2455 
0 0 -1.23176 0 0 -1.2299 0 0 -1.23529 
0 0 -1.22911 0.38432 0.104027 -0.88884 0 0 -1.22411 
0 0 -1.20027 0 0 -1.199 0 0 -1.20164 
0 0 -1.20832 0 0 -1.18791 0 0 -1.19497 
0 0 -1.14553 0 0 -1.16525 0 0 -1.13553 
0 0 -1.1161 0 0 -1.11237 0 0 -1.11031 
0 0 -1.10816 0 0 -1.075 0 0 -1.09472 
0 0 -1.09874 0 0 -1.07176 0 0 -1.07568 
0 0 -1.07912 0 0 -1.06018 0 0 -1.04576 
0 0 -1.02712 0 0 -1.00839 0 0 -1.01663 
0 0 -1.02153 -0 -0 -1 -0 -0 -1 
0 0 -1.00025 -0 -0 -1 -0 -0 -1 
-0 -0 -1 -0 -0 -1 -0 -0 -1 

f 3 321 double
-2.69488e-17 7.84374e-17 0 2.72492e-17 -3.90796e-17 0 -3.78204e-11 -1.92e-10 -3.10611e-09 
-5.54867e-17 5.11723e-17 0 0 0 -0.000346714 7.26137e-15 -5.18926e-14 2.90306e-12 
2.06797e-17 5.51217e-18 0 0 0 -0.000346714 -1.30597e-18 1.30752e-17 0 
2.617e-17 4.66262e-17 -1.02999e-18 4.19902e-15 -3.87059e-15 1.91969e-13 6.17835e-19 1.06559e-17 0 
-2.78222e-17 -2.85476e-17 0 -1.7343e-18 1.46985e-17 0 1.00222e-18 -1.42727e-17 0 
2.24899e-14 1.74319e-13 -2.08053e-12 7.70252e-18 -2.06522e-17 0 1.97071e-17 -5.06156e-18 0 
2.69409e-17 2.70055e-17 0 5.07511e-14 -9.65775e-14 -5.63174e-12 -2.43381e-11 5.49757e-11 -9.47982e-10 
0.000146699 -0.00057926 0.00197142 -1.97941e-05 -2.21588e-05 -0.000251852 1.44991e-08 -2.60241e-08 -1.67824e-05 
0 0 -0.000346714 1.71065e-07 4.71935e-08 2.05842e-05 0 0 -0.000346714 
3.33735e-16 6.70879e-17 -7.10407e-12 1.88457e-06 -2.3975e-07 -0.000340609 0 0 -0.000346714 
-2.50962e-18 -8.49248e-19 -4.28422e-16 0 0 -0.000346714 4.82501e-06 -3.5555e-06 -0.000834382 
-1.43031e-17 1.42733e-17 0 0 0 -0.000346714 0 0 -0.000346714 
-0.000256343 0.000156277 0.000253734 0 0 -0.000346714 -1.71684e-17 1.34714e-17 0 
-8.41738e-17 2.32796e-17 -7.41776e-13 2.12183e-12 -1.51402e-12 9.99367e-10 -2.71561e-07 -0.000239892 0.000133071 
0 0 -0.000346714 0 0 -0.000346714 -3.11565e-07 2.09168e-07 4.4313e-05 
0 0 -0.000346714 0 0 -0.000346714 0.00198759 -0.00103033 -0.00520973 
0 0 -0.000346714 -2.5562e-18 -2.81026e-19 0 -7.37723e-15 2.77188e-16 2.74382e-13 
-0.00100553 -0.00522067 -0.001218 2.32334e-17 2.75051e-19 0 -7.51375e-12 9.39935e-12 3.87475e-09 
-2.52306e-08 7.10502e-09 -1.31792e-06 -1.46191e-17 -1.45186e-17 2.06687e-15 0 0 -0.000346714 
0.000817664 0.00548157 0.000224424 0 0 -0.000346714 7.09049e-12 -2.10061e-11 3.73517e-09 
-3.71551e-09 -2.1387e-09 4.30857e-07 -1.46712e-06 -4.42477e-07 -0.000216662 -3.53016e-18 1.40265e-17 -7.30427e-16 
-1.51309e-09 -3.11487e-10 -2.02584e-06 2.6942e-17 -1.92614e-18 0 0 0 -0.000346714 
9.94782e-12 4.51893e-11 1.10452e-08 0 0 -0.000346714 -5.88162e-17 1.46426e-17 0 
0 0 -0.000346714 0 0 -0.000346714 -1.70184e-11 -9.94663e-12 -1.34602e-09 
0 0 -0.000346714 -5.38811e-17 1.34713e-17 0 0.00153361 0.000729002 -0.0012172 
4.58211e-11 -2.57911e-11 -4.39542e-09 5.45918e-05 -9.0791e-05 -0.000134834 6.95937e-07 8.48464e-07 0.000122472 
0 0 -0.000346714 3.3219e-05 7.71796e-06 -1.057e-05 0 0 -0.000346714 
2.26156e-17 -5.37113e-18 0 -1.40976e-14 2.4655e-13 -2.16211e-11 0 0 -0.000346714 
3.66774e-12 -4.78003e-12 7.7827e-10 0 0 -0.000346714 -3.64305e-13 -1.80833e-13 3.18984e-11 
-5.68642e-15 -9.2622e-15 8.27058e-12 2.96993e-12 2.67593e-12 8.70629e-10 0.00250584 0.00228577 -0.00108749 
-1.50522e-11 -2.62648e-10 -4.07592e-07 -2.33951e-09 -9.95705e-10 2.49853e-06 5.56122e-17 2.88539e-17 0 
7.14588e-18 -1.35293e-17 0 -3.98404e-08 -2.39826e-08 3.63893e-05 0 0 -0.000346714 
-0.000110477 1.87547e-05 0.000389279 2.5122e-09 -9.90511e-09 2.82112e-07 1.82994e-08 -8.13584e-08 -1.90508e-07 
1.50764e-08 8.17415e-08 -5.78082e-06 -2.0359e-09 -1.37302e-09 -4.66841e-08 7.13945e-18 3.67646e-18 0 
1.17374e-06 6.11991e-07 6.24031e-05 2.62542e-17 -5.38841e-17 -1.19262e-18 -2.52419e-12 3.87582e-12 -3.54378e-11 
9.47796e-19 -2.85712e-17 0 -1.42961e-14 -2.50842e-14 -1.47207e-11 1.8049e-14 3.44739e-14 -5.4111e-13 
0 0 -0.000346714 -3.18256e-14 -9.94449e-14 -2.71288e-12 0 0 -0.000346714 
-1.82789e-17 3.6532e-16 -1.13893e-14 6.74945e-18 -1.59261e-17 0 7.8746e-18 3.18668e-17 0 
-7.01026e-17 6.5978e-17 1.02674e-16 -1.41943e-17 5.38833e-17 0 -5.6965e-17 -2.23069e-16 0 
-8.45254e-17 2.23155e-16 3.25261e-18 1.03817e-17 1.13975e-16 0 0 0 -0.00160516 
-5.03268e-17 -1.5048e-16 0 0 0 -0.00160516 -2.90477e-08 -3.49719e-08 -6.91863e-06 
-1.40624e-09 -2.5192e-09 5.05417e-09 0 0 -0.000346714 0.000590541 0.000591977 6.71767e-05 
0.000513984 -0.00166397 -0.000973926 -1.88457e-06 2.3975e-07 -0.000352819 0 0 -0.00160516 
0 0 -0.000346714 0.000416054 -0.000226244 0.00197519 0 0 -0.000346714 
-0.000247309 0.00130371 0.00644069 0 0 -0.00160516 0.000539344 0.000265811 -0.00040258 
0.000156733 0.00040178 0.00555674 0 0 -0.000346714 0 0 -0.000346714 
0 0 -0.000346714 0.0116979 0.000331866 0.0167312 0 0 -0.00160516 
0 0 -0.000346714 0 0 -0.000346714 1.54989e-14 1.24731e-14 -1.67644e-11 