# vtk DataFile Version 4.0
Generated by LIGGGHTS
ASCII
DATASET POLYDATA
POINTS 605 float
-0.0697067 -0.204029 -0.220098 -0.0547337 -0.129244 -0.0229704 -0.019417 -0.1303 -0.0215637 
-0.0634366 -0.12647 -0.0148488 -0.0310215 -0.115138 0.00318046 -0.016092 -0.109599 0.00275072 
-0.0418859 -0.108062 0.00754387 0.093428 -0.105318 0.00621804 0.0490427 -0.104959 0.0106251 
-0.0154785 -0.0995236 0.0114982 0.0551885 -0.100756 0.0114455 0.0144202 -0.0928812 0.0114983 
-0.0190898 -0.0893468 0.0114983 0.0169257 -0.0893715 0.0114983 0.0360662 -0.0836431 0.0115953 
-0.0877285 -0.0691512 0.0114983 0.0115059 -0.0691463 0.0114983 -0.0686779 -0.0671882 0.0114983 
-0.0197682 -0.0663732 0.0114983 0.0304587 -0.0683708 0.0114981 0.0350913 -0.0667048 0.0115104 
-0.0621825 -0.0634816 0.0114983 -0.0533484 -0.0636115 0.0114983 -0.0369805 -0.0651823 0.0114983 
-0.0189131 -0.0632638 0.0114983 0.0303729 -0.0652963 0.0117203 0.036344 -0.0639461 0.0116231 
0.0465857 -0.0642692 0.0114983 -0.0939926 -0.0603042 0.0114983 0.0212942 -0.0608 0.0114983 
0.0408371 -0.0592247 0.0114983 0.0637162 -0.0587645 0.0114983 0.0017799 -0.0562267 0.0114983 
0.0256476 -0.0557238 0.0114983 -0.0176364 -0.0545037 0.0114983 0.0210001 -0.054557 0.0114983 
0.0250972 -0.0513299 0.0114983 -0.0944715 -0.050974 0.0114983 -0.0189437 -0.0511124 0.0114983 
-0.0176823 -0.0483805 0.0114983 -0.0148025 -0.0512557 0.0114983 0.00109672 -0.0508266 0.0114983 
0.0155554 -0.0505611 0.0114983 0.0203483 -0.0515727 0.0114983 0.0314798 -0.0484343 0.0114983 
0.0390205 -0.0489264 0.0114983 -0.0938623 -0.0442664 0.0114983 -0.0156998 -0.0461224 0.0114983 
0.0427447 -0.0474447 0.0114983 0.0958421 -0.0477265 0.011662 -0.0869376 -0.0418806 0.0114983 
-0.0805358 -0.0406885 0.0114983 -0.0682571 -0.0441196 0.0114983 -0.0416691 -0.0432692 0.0115008 
-0.0378873 -0.0442582 0.0114985 -0.0308048 -0.0429717 0.0114965 -0.024772 -0.0439801 0.0114983 
0.00106763 -0.043561 0.0114983 0.00387988 -0.0419342 0.0114983 0.0133757 -0.0412247 0.0114983 
0.0518299 -0.044009 0.0114983 -0.0386543 -0.0398857 0.0114983 -0.0249639 -0.0398065 0.0114983 
-0.00956446 -0.038718 0.0114985 0.00600807 -0.0397667 0.0114983 0.0085368 -0.0374601 0.0114983 
-0.0356419 -0.0371899 0.0114983 -0.0371274 -0.0339737 0.0114983 -0.0179425 -0.034107 0.0114983 
-0.0129926 -0.0372048 0.0114983 -0.00702803 -0.036874 0.0114996 -0.0290945 -0.0324195 0.0114983 
-0.0261381 -0.0331317 0.0114978 -0.0209943 -0.0331937 0.0114983 -0.0110551 -0.0312834 0.0114983 
0.0690856 -0.033599 0.0114983 -0.0326721 -0.0271722 0.0114983 0.0023972 -0.0274559 0.0114983 
0.00728777 -0.0276651 0.0114984 0.0150228 -0.0300479 0.0114983 0.0284576 -0.0298119 0.011506 
0.0378604 -0.0289584 0.0114983 0.050316 -0.0273551 0.0114983 -0.0118739 -0.0258474 0.0114981 
-0.00154493 -0.0230414 0.0114983 0.0107233 -0.0233033 0.0114962 0.0127665 -0.0258868 0.0114989 
0.0385202 -0.0248774 0.0114984 0.0523598 -0.0248721 0.0114983 -0.0369499 -0.021145 0.0114983 
-0.0217903 -0.0221586 0.0118754 -0.0164994 -0.0201589 0.0115724 -0.0042332 -0.0214453 0.0114983 
0.0137035 -0.0230327 0.0115016 0.0224511 -0.0224336 0.0116404 0.0252952 -0.0203584 0.0115383 
-0.052882 -0.0181075 0.0114983 -0.0402715 -0.0173732 0.0116522 -0.0362149 -0.0180041 0.0114983 
-0.00717893 -0.0185089 0.0114983 0.006986 -0.0162174 0.0114892 0.00946365 -0.0191702 0.0114838 
0.0514267 -0.0161719 0.0114983 -0.049704 -0.0147959 0.0117593 -0.0340456 -0.0154431 0.0114983 
-0.0305224 -0.0137577 0.0114983 -0.0111148 -0.012906 0.0115157 -0.00829647 -0.0137512 0.0121312 
-0.00100086 -0.0132929 0.0114955 0.00205837 -0.0134837 0.0115089 0.0171306 -0.0142858 0.0114987 
-0.0577479 -0.00993671 0.0114983 -0.0546884 -0.0114231 0.0114983 -0.0516135 -0.00965093 0.0114983 
-0.0248724 -0.0093595 0.0116027 -0.0207948 -0.0108455 0.0114988 0.00108556 -0.00888934 0.0114983 
0.00410455 -0.0111427 0.0114891 0.0267158 -0.00907433 0.0114997 0.0432429 -0.0103211 0.0114983 
-0.0313058 -0.00572655 0.0115069 -0.0269995 -0.00571713 0.0114998 -0.0240634 -0.00506725 0.0115596 
-0.01732 -0.005666 0.0114983 -0.0022241 -0.00876033 0.0114985 0.0031839 -0.00586381 0.0114979 
0.00546294 -0.00834896 0.0114983 0.0123739 -0.00835077 0.0114967 0.0456737 -0.00830702 0.0114975 
-0.0641144 -0.00299091 0.0114983 -0.0471294 -0.00396175 0.0114983 -0.0348943 -0.00289818 0.0114983 
-0.0262323 -0.0023991 0.0114983 -0.00748125 -0.00446546 0.0114983 -0.00427854 -0.00411987 0.0113797 
0.010854 -0.00356915 0.0114983 0.0194685 -0.00374583 0.0114983 0.0285462 -0.00371872 0.0114983 
-0.0959225 0.000498788 0.0114983 -0.0612295 -0.000922877 0.0114983 -0.0140298 -0.00133835 0.0114983 
-0.0117295 0.00183558 0.0120284 -0.00813344 -0.000924001 0.0114994 -0.000177327 -0.00068233 0.0114983 
0.00912701 -0.000733695 0.0114903 0.0352933 -0.000152117 0.0114983 0.0535384 -0.00161598 0.0114983 
-0.0330007 0.00258589 0.0114983 -0.00111111 0.00274538 0.0114975 0.00794727 0.00266514 0.0114988 
0.0195874 0.00324396 0.0120242 0.0410808 0.0024629 0.0114983 -0.0503577 0.00697268 0.011498 
-0.0391834 0.00562015 0.0114983 -0.0335732 0.00575151 0.0114983 -0.0236292 0.00717978 0.0114983 
-0.0135426 0.00796743 0.0115544 -0.00781756 0.00701281 0.0114869 0.00014793 0.00597471 0.0114963 
0.00476495 0.0069601 0.0114965 0.00769274 0.00622288 0.0114886 0.0260905 0.00595703 0.0114983 
0.0398058 0.00557118 0.0114984 0.0428181 0.00546073 0.0120189 0.045696 0.00646784 0.0114985 
-0.0753678 0.00997568 0.0114983 -0.0420917 0.00967772 0.0114983 -0.0176999 0.0104166 0.0114983 
-0.0142497 0.0118462 0.0117488 -0.00275307 0.0118342 0.0114972 0.00675795 0.00976492 0.0114983 
0.0104563 0.011742 0.0114911 0.0131991 0.00900837 0.0114974 0.0200086 0.0118885 0.0114975 
0.0342535 0.00925561 0.0114982 -0.0926567 0.0130784 0.0115378 -0.0605389 0.0142974 0.0114983 
-0.0334953 0.0156978 0.0115078 -0.0136312 0.0155784 0.0119142 -0.00352599 0.0152204 0.0114983 
-0.000708008 0.0140462 0.0114983 0.00338463 0.0128292 0.012149 0.037106 0.0133917 0.0114982 
0.0459484 0.0129032 0.0114983 -0.0314183 0.0186017 0.0114983 -0.0190891 0.0182946 0.0114983 
-0.00510419 0.0192439 0.0114983 0.000153659 0.0173721 0.0115344 0.0118524 0.0165247 0.0115024 
0.0146822 0.0178884 0.0114987 0.0365027 0.0178688 0.0118621 0.0606354 0.0171874 0.0114983 
-0.0940676 0.0206963 0.0114979 -0.0682698 0.0197711 0.0114983 -0.00210416 0.0194583 0.0114956 
0.0021665 0.0198803 0.0114984 0.00523331 0.0225442 0.0114969 0.0155526 0.0220274 0.0121865 
0.0203862 0.0204182 0.0117618 0.0258297 0.0202481 0.0114944 0.0384068 0.0229439 0.0114983 
0.041424 0.0193593 0.0114983 -0.0959209 0.0230996 0.0114983 -0.0371592 0.0257029 0.0114983 
-0.0340729 0.0252473 0.0114983 -0.0273806 0.0240105 0.0114982 -0.0202265 0.0268297 0.0115005 
-0.0145066 0.0235739 0.0115008 -0.00598885 0.0262106 0.0114983 0.000354927 0.025337 0.0114963 
0.0188441 0.0241904 0.0114983 0.0230327 0.0240656 0.0115275 -0.0955107 0.0273357 0.0114983 
-0.0393238 0.0277902 0.0114983 -0.0327181 0.0282263 0.0114983 -0.0297175 0.0272289 0.0114988 
-0.0170642 0.0296259 0.0115017 -0.0130351 0.0273365 0.0114972 -0.00291034 0.0288811 0.0114983 
0.000946522 0.0287328 0.0114993 0.0037742 0.0270055 0.0114983 0.0109073 0.0294435 0.0114983 
0.0321508 0.0298004 0.0114983 -0.0949591 0.032735 0.0114983 -0.0347955 0.0306017 0.0116414 
-0.030591 0.0310635 0.0114983 -0.0212826 0.0302555 0.0114983 -0.0101975 0.0327941 0.0115062 
0.0118329 0.0324441 0.0114983 0.0354338 0.0311747 0.0114983 0.0395998 0.0301959 0.0114983 
0.0479137 0.0329603 0.012135 -0.0294997 0.0342449 0.0114983 -0.0280579 0.0370649 0.0114983 
-0.0262522 0.0338038 0.0115022 -0.0144828 0.0357942 0.0114994 -0.0112938 0.0360549 0.0114983 
0.0611737 0.0346797 0.0114983 -0.0751956 0.0396775 0.0115323 -0.0251435 0.0381094 0.0114983 
-0.0149959 0.0388355 0.0114983 0.00532819 0.0376849 0.0114983 0.018783 0.0406782 0.0114983 
-0.0426245 0.0420077 0.0114983 0.035667 0.041495 0.0114983 0.0384588 0.0429022 0.011509 
0.0495069 0.0431906 0.0114983 -0.0258402 0.0454999 0.0114983 -0.0150967 0.0450163 0.0114983 
0.00620425 0.0466802 0.0114983 0.0362003 0.0467209 0.0114983 0.0394569 0.0457716 0.0114983 
-0.0173513 0.0495282 0.0114983 -0.0114953 0.0478581 0.0114983 0.00543289 0.0506491 0.0114983 
0.00946156 0.0480775 0.0114983 0.0501353 0.047855 0.0114983 0.087683 0.0487722 0.0114983 
-0.0931481 0.0535427 0.0114983 -0.0115621 0.0514261 0.0114983 0.00294768 0.0529398 0.0114983 
0.0181021 0.0544829 0.0114983 0.0448681 0.0518272 0.0114983 -0.0608203 0.0587268 0.0114983 
-0.0547196 0.0567912 0.0114983 -0.0333437 0.0554966 0.0121183 0.00315365 0.0566485 0.0114983 
0.00718293 0.0561232 0.0114983 0.0275251 0.0578378 0.0114983 0.0109771 0.0585085 0.0114983 
0.0847257 0.0616021 0.0114983 -0.0505271 0.0642266 0.0114983 0.0699429 0.0632397 0.0114983 
-0.00206155 0.0682774 0.0114983 0.093698 0.0683848 0.0114983 0.00587707 0.0705714 0.0114983 
0.0872597 0.0694185 0.0114983 -0.0708277 0.0760087 0.0114983 -0.0388015 0.0736813 0.0114983 
0.0371019 0.0748512 0.0114983 0.0859551 0.0765653 0.0114983 0.0145311 0.0816919 0.0114983 
0.0192644 0.0825193 0.0114983 0.00649574 0.084728 0.0114983 0.0189245 0.08565 0.0114983 
0.0921851 0.0827235 0.0114983 -0.0915505 0.0931014 0.0114983 -0.0162788 0.0953748 0.0114983 
0.0579133 0.0929176 0.0114983 0.0764079 0.0951628 0.0114983 0.00973635 -0.101032 0.0124264 
0.0167683 -0.0852981 0.0124961 0.0899832 -0.0853309 0.0124961 -0.0428113 -0.0756723 0.0124961 
0.0293707 -0.0753508 0.0124961 -0.0261209 -0.0681735 0.0124961 -0.01482 -0.0687136 0.0124961 
-0.039774 -0.0621359 0.0124961 -0.0265313 -0.0630993 0.0124961 0.00683631 -0.0652357 0.0124961 
-0.070942 -0.0597572 0.0124961 -0.0179038 -0.0584688 0.0124962 -0.00352365 -0.0614384 0.0124961 
0.00914036 -0.0590008 0.0124961 -0.0262404 -0.0524486 0.0124961 0.00509732 -0.0537772 0.0124961 
0.0321297 -0.05279 0.0124961 -0.0221466 -0.0488856 0.0124961 -0.0282289 -0.0452952 0.0145675 
-0.0197601 -0.0443322 0.0124961 0.0353248 -0.0470052 0.0125384 0.0471477 -0.0477785 0.0124962 
[...]
POINT_DATA 605
FIELD FieldData 7
id 1 605 int
48 82 160 282 89 30 6 12 105 
356 52 77 243 59 397 9 112 137 
73 265 393 343 252 229 83 10 200 
50 283 173 189 19 267 76 18 108 
110 71 90 85 8 307 251 328 75 
319 47 161 97 125 45 107 179 290 
242 281 268 192 333 406 11 202 32 
152 458 418 425 353 308 240 498 378 
314 218 371 23 358 475 438 63 433 
448 164 352 120 214 101 292 249 368 
489 502 127 487 109 525 211 197 84 
172 339 263 305 436 344 320 25 303 
72 123 139 64 153 205 36 476 294 
340 366 384 412 96 226 315 146 373 
278 279 295 114 227 228 162 126 185 
288 163 355 217 74 473 332 150 121 
244 346 201 404 190 447 545 302 204 
253 239 407 199 266 275 341 484 213 
369 420 411 61 334 419 231 359 296 
392 360 198 136 210 291 289 370 270 
421 497 309 165 264 432 140 430 318 
424 171 257 277 86 230 331 483 382 
449 330 357 329 33 178 255 457 186 
354 99 445 215 399 133 276 102 321 
203 38 238 100 463 70 87 122 385 
381 437 151 148 49 22 304 423 21 
405 317 383 396 177 60 256 372 65 
212 398 241 159 51 20 224 225 134 
237 394 98 254 223 62 176 88 135 
367 39 410 306 58 26 188 175 216 
111 191 184 7 149 113 34 57 138 
95 46 24 35 147 37 166 124 13 
187 301 206 363 208 4 2 324 119 
258 262 222 261 168 154 68 375 416 
325 92 167 142 260 132 409 300 481 
144 40 16 313 42 348 514 336 157 
414 365 543 523 285 529 219 67 323 
452 156 494 541 460 15 464 335 248 
29 347 337 402 467 429 155 14 387 
129 482 284 361 3 274 131 362 465 
193 391 141 459 444 235 504 247 181 
442 499 115 500 417 415 342 79 501 
250 455 246 456 170 232 207 91 158 
395 472 326 390 492 351 174 286 311 
195 143 81 468 293 466 532 180 221 
94 145 434 259 116 511 512 451 338 
350 41 245 183 316 345 552 377 27 
298 287 422 271 55 379 431 536 485 
5 17 117 66 106 322 327 454 537 
426 280 273 236 471 513 400 547 470 
519 446 509 450 220 169 428 44 272 
53 435 401 196 310 54 209 69 103 
349 297 269 80 312 182 128 93 43 
374 299 130 388 234 194 28 104 78 
1 233 56 31 118 389 386 477 518 
540 521 413 506 507 439 524 443 550 
527 531 364 535 403 469 380 533 376 
542 427 522 495 493 474 520 544 480 
488 539 508 491 440 490 408 534 503 
515 549 462 528 526 546 496 510 517 
562 441 505 553 516 461 548 554 565 
479 478 561 560 559 538 557 556 530 
551 566 564 558 486 555 453 563 576 
571 573 568 572 574 575 577 567 578 
570 579 569 589 588 583 584 580 581 
591 587 590 585 586 592 582 593 595 
601 604 594 600 598 596 597 605 603 
602 599 
type 1 605 int
1 1 1 1 1 1 1 1 1 
1 1 1 1 1 1 1 1 1 
1 1 1 1 1 1 1 1 1 
1 1 1 1 1 1 1 1 1 
1 1 1 1 1 1 1 1 1 
1 1 1 1 1 1 1 1 1 
1 1 1 1 1 1 1 1 1 
1 1 1 1 1 1 1 1 1 
1 1 1 1 1 1 1 1 1 
1 1 1 1 1 1 1 1 1 
1 1 1 1 1 1 1 1 1 
1 1 1 1 1 1 1 1 1 
1 1 1 1 1 1 1 1 1 
1 1 1 1 1 1 1 1 1 
1 1 1 1 1 1 1 1 1 
1 1 1 1 1 1 1 1 1 
1 1 1 1 1 1 1 1 1 
1 1 1 1 1 1 1 1 1 
1 1 1 1 1 1 1 1 1 
1 1 1 1 1 1 1 1 1 
1 1 1 1 1 1 1 1 1 
1 1 1 1 1 1 1 1 1 
1 1 1 1 1 1 1 1 1 
1 1 1 1 1 1 1 1 1 
1 1 1 1 1 1 1 1 1 
1 1 1 1 1 1 1 1 1 
1 1 1 1 1 1 1 1 1 
1 1 1 1 1 1 1 1 1 
1 1 1 1 1 1 1 1 1 
1 1 1 1 1 1 1 1 1 
1 1 1 1 1 1 1 1 1 
1 1 1 1 1 1 1 1 1 
1 1 1 1 1 1 1 1 1 
1 1 1 1 1 1 1 1 1 
1 1 1 1 1 1 1 1 1 
1 1 1 1 1 1 1 1 1 
1 1 1 1 1 1 1 1 1 
1 1 1 1 1 1 1 1 1 
1 1 1 1 1 1 1 1 1 
1 1 1 1 1 1 1 1 1 
1 1 1 1 1 1 1 1 1 
1 1 1 1 1 1 1 1 1 
1 1 1 1 1 1 1 1 1 
1 1 1 1 1 1 1 1 1 
1 1 1 1 1 1 1 1 1 
1 1 1 1 1 1 1 1 1 
1 1 1 1 1 1 1 1 1 
1 1 1 1 1 1 1 1 1 
1 1 1 1 1 1 1 1 1 
1 1 1 1 1 1 1 1 1 
1 1 1 1 1 1 1 1 1 
1 1 1 1 1 1 1 1 1 
1 1 1 1 1 1 1 1 1 
1 1 1 1 1 1 1 1 1 
1 1 1 1 1 1 1 1 1 
1 1 1 1 1 1 1 1 1 
1 1 1 1 1 1 1 1 1 
1 1 1 1 1 1 1 1 1 
1 1 1 1 1 1 1 1 1 
1 1 1 1 1 1 1 1 1 
1 1 1 1 1 1 1 1 1 
1 1 1 1 1 1 1 1 1 
1 1 1 1 1 1 1 1 1 
1 1 1 1 1 1 1 1 1 
1 1 1 1 1 1 1 1 1 
1 1 1 1 1 1 1 1 1 
1 1 1 1 1 1 1 1 1 
1 1 
i 3 605 int
0 0 0 0 0 0 0 0 0 
0 0 0 0 0 0 0 0 0 
0 0 0 0 0 0 0 0 0 
0 0 0 0 0 0 0 0 0 
0 0 0 0 0 0 0 0 0 
0 0 0 0 0 0 0 0 0 
0 0 0 0 0 0 0 0 0 
0 0 0 0 0 0 0 0 0 
0 0 0 0 0 0 0 0 0 
0 0 0 0 0 0 0 0 0 
0 0 0 0 0 0 0 0 0 
0 0 0 0 0 0 0 0 0 
0 0 0 0 0 0 0 0 0 
0 0 0 0 0 0 0 0 0 
0 0 0 0 0 0 0 0 0 
0 0 0 0 0 0 0 0 0 
0 0 0 0 0 0 0 0 0 
0 0 0 0 0 0 0 0 0 
0 0 0 0 0 0 0 0 0 
0 0 0 0 0 0 0 0 0 
0 0 0 0 0 0 0 0 0 
0 0 0 0 0 0 0 0 0 
0 0 0 0 0 0 0 0 0 
0 0 0 0 0 0 0 0 0 
0 0 0 0 0 0 0 0 0 
0 0 0 0 0 0 0 0 0 
0 0 0 0 0 0 0 0 0 
0 0 0 0 0 0 0 0 0 
0 0 0 0 0 0 0 0 0 
0 0 0 0 0 0 0 0 0 
0 0 0 0 0 0 0 0 0 
0 0 0 0 0 0 0 0 0 
0 0 0 0 0 0 0 0 0 
0 0 0 0 0 0 0 0 0 
0 0 0 0 0 0 0 0 0 
0 0 0 0 0 0 0 0 0 
0 0 0 0 0 0 0 0 0 
0 0 0 0 0 0 0 0 0 
0 0 0 0 0 0 0 0 0 
0 0 0 0 0 0 0 0 0 
0 0 0 0 0 0 0 0 0 
0 0 0 0 0 0 0 0 0 
0 0 0 0 0 0 0 0 0 
0 0 0 0 0 0 0 0 0 
0 0 0 0 0 0 0 0 0 
0 0 0 0 0 0 0 0 0 
0 0 0 0 0 0 0 0 0 
0 0 0 0 0 0 0 0 0 
0 0 0 0 0 0 0 0 0 
0 0 0 0 0 0 0 0 0 
0 0 0 0 0 0 0 0 0 
0 0 0 0 0 0 0 0 0 
0 0 0 0 0 0 0 0 0 
0 0 0 0 0 0 0 0 0 
0 0 0 0 0 0 0 0 0 
0 0 0 0 0 0 0 0 0 
0 0 0 0 0 0 0 0 0 
0 0 0 0 0 0 0 0 0 
0 0 0 0 0 0 0 0 0 
0 0 0 0 0 0 0 0 0 
0 0 0 0 0 0 0 0 0 
0 0 0 0 0 0 0 0 0 
0 0 0 0 0 0 0 0 0 
0 0 0 0 0 0 0 0 0 
0 0 0 0 0 0 0 0 0 
0 0 0 0 0 0 0 0 0 
0 0 0 0 0 0 0 0 0 
0 0 0 0 0 0 0 0 0 
0 0 0 0 0 0 0 0 0 
0 0 0 0 0 0 0 0 0 
0 0 0 0 0 0 0 0 0 
0 0 0 0 0 0 0 0 0 
0 0 0 0 0 0 0 0 0 
0 0 0 0 0 0 0 0 0 
0 0 0 0 0 0 0 0 0 
0 0 0 0 0 0 0 0 0 
0 0 0 0 0 0 0 0 0 
0 0 0 0 0 0 0 0 0 
0 0 0 0 0 0 0 0 0 
0 0 0 0 0 0 0 0 0 
0 0 0 0 0 0 0 0 0 
0 0 0 0 0 0 0 0 0 
0 0 0 0 0 0 0 0 0 
0 0 0 0 0 0 0 0 0 
0 0 0 0 0 0 0 0 0 
0 0 0 0 0 0 0 0 0 
0 0 0 0 0 0 0 0 0 
0 0 0 0 0 0 0 0 0 
0 0 0 0 0 0 0 0 0 
0 0 0 0 0 0 0 0 0 
0 0 0 0 0 0 0 0 0 
0 0 0 0 0 0 0 0 0 
0 0 0 0 0 0 0 0 0 
0 0 0 0 0 0 0 0 0 
0 0 0 0 0 0 0 0 0 
0 0 0 0 0 0 0 0 0 
0 0 0 0 0 0 0 0 0 
0 0 0 0 0 0 0 0 0 
0 0 0 0 0 0 0 0 0 
0 0 0 0 0 0 0 0 0 
0 0 0 0 0 0 0 0 0 
0 0 0 0 0 0 0 0 0 
0 0 0 0 0 0 0 0 0 
0 0 0 0 0 0 0 0 0 
0 0 0 0 0 0 0 0 0 
0 0 0 0 0 0 0 0 0 
0 0 0 0 0 0 0 0 0 
0 0 0 0 0 0 0 0 0 
0 0 0 0 0 0 0 0 0 
0 0 0 0 0 0 0 0 0 
0 0 0 0 0 0 0 0 0 
0 0 0 0 0 0 0 0 0 
0 0 0 0 0 0 0 0 0 
0 0 0 0 0 0 0 0 0 
0 0 0 0 0 0 0 0 0 
0 0 0 0 0 0 0 0 0 
0 0 0 0 0 0 0 0 0 
0 0 0 0 0 0 0 0 0 
0 0 0 0 0 0 0 0 0 
0 0 0 0 0 0 0 0 0 
0 0 0 0 0 0 0 0 0 
0 0 0 0 0 0 0 0 0 
0 0 0 0 0 0 0 0 0 
0 0 0 0 0 0 0 0 0 
0 0 0 0 0 0 0 0 0 
0 0 0 0 0 0 0 0 0 
0 0 0 0 0 0 0 0 0 
0 0 0 0 0 0 0 0 0 
0 0 0 0 0 0 0 0 0 
0 0 0 0 0 0 0 0 0 
0 0 0 0 0 0 0 0 0 
0 0 0 0 0 0 0 0 0 
0 0 0 0 0 0 0 0 0 
0 0 0 0 0 0 0 0 0 
0 0 0 0 0 0 0 0 0 
0 0 0 0 0 0 0 0 0 
0 0 0 0 0 0 0 0 0 
0 0 0 0 0 0 0 0 0 
0 0 0 0 0 0 0 0 0 
0 0 0 0 0 0 0 0 0 
0 0 0 0 0 0 0 0 0 
0 0 0 0 0 0 0 0 0 
0 0 0 0 0 0 0 0 0 
0 0 0 0 0 0 0 0 0 
0 0 0 0 0 0 0 0 0 
0 0 0 0 0 0 0 0 0 
0 0 0 0 0 0 0 0 0 
0 0 0 0 0 0 0 0 0 
0 0 0 0 0 0 0 0 0 
0 0 0 0 0 0 0 0 0 
0 0 0 0 0 0 0 0 0 
0 0 0 0 0 0 0 0 0 
0 0 0 0 0 0 0 0 0 
0 0 0 0 0 0 0 0 0 
0 0 0 0 0 0 0 0 0 
0 0 0 0 0 0 0 0 0 
0 0 0 0 0 0 0 0 0 
0 0 0 0 0 0 0 0 0 
0 0 0 0 0 0 0 0 0 
0 0 0 0 0 0 0 0 0 
0 0 0 0 0 0 0 0 0 
0 0 0 0 0 0 0 0 0 
0 0 0 0 0 0 0 0 0 
0 0 0 0 0 0 0 0 0 
0 0 0 0 0 0 0 0 0 
0 0 0 0 0 0 0 0 0 
0 0 0 0 0 0 0 0 0 
0 0 0 0 0 0 0 0 0 
0 0 0 0 0 0 0 0 0 
0 0 0 0 0 0 0 0 0 
0 0 0 0 0 0 0 0 0 
0 0 0 0 0 0 0 0 0 
0 0 0 0 0 0 0 0 0 
0 0 0 0 0 0 0 0 0 
0 0 0 0 0 0 0 0 0 
0 0 0 0 0 0 0 0 0 
0 0 0 0 0 0 0 0 0 
0 0 0 0 0 0 0 0 0 
0 0 0 0 0 0 0 0 0 
0 0 0 0 0 0 0 0 0 
0 0 0 0 0 0 0 0 0 
0 0 0 0 0 0 0 0 0 
0 0 0 0 0 0 0 0 0 
0 0 0 0 0 0 0 0 0 
0 0 0 0 0 0 0 0 0 
0 0 0 0 0 0 0 0 0 
0 0 0 0 0 0 0 0 0 
0 0 0 0 0 0 0 0 0 
0 0 0 0 0 0 0 0 0 
0 0 0 0 0 0 0 0 0 
0 0 0 0 0 0 0 0 0 
0 0 0 0 0 0 0 0 0 
0 0 0 0 0 0 0 0 0 
0 0 0 0 0 0 0 0 0 
0 0 0 0 0 0 0 0 0 
0 0 0 0 0 0 0 0 0 
0 0 0 0 0 0 0 0 0 
0 0 0 0 0 0 0 0 0 
0 0 0 0 0 0 0 0 0 
0 0 0 0 0 0 0 0 0 
0 0 0 0 0 0 0 0 0 
0 0 0 0 0 0 
v 3 605 double
-0.176432 -0.479133 -2.13165 -0.150544 -0.34945 -0.822365 -0.00995307 -0.36973 -0.805409 
-0.235423 -0.349844 -0.719682 -0.219404 -0.368802 -0.403981 -0.0504897 -0.215186 -0.437286 
-0.130769 -0.28505 -0.278556 -0.0652621 -0.178092 -0.328362 0.110456 -0.254487 -0.191638 
0.06241 -0.0691025 0.000331171 0.119796 -0.234867 -0.0323006 0.0283574 -0.202639 1.67805e-14 
-0.0712659 -0.258215 4.04846e-14 0.117248 -0.205681 4.83852e-14 0.161098 -0.384964 -0.0976173 
-0.211423 -0.182789 -8.59365e-14 -0.0115046 -0.16491 7.99915e-14 -0.123107 -0.145498 -2.27271e-14 
-0.0598722 -0.124393 9.77819e-16 0.0729108 -0.190542 -0.00022404 0.0676957 -0.179641 0.0099853 
-0.260551 -0.197813 7.99915e-14 -0.116977 -0.146521 -3.06277e-14 -0.0883677 -0.164229 -5.43318e-14 
-0.0137142 -0.123754 -6.92356e-15 0.0675911 -0.191487 0.00233934 0.182554 -0.199872 0.0661638 
0.116578 -0.107457 -6.92278e-15 -0.301437 -0.109924 -6.22331e-14 0.0244282 -0.122767 1.67805e-14 
0.175599 -0.259601 7.99923e-14 0.152919 -0.112596 7.99923e-14 -0.0132745 -0.153486 -1.48241e-14 
0.039098 -0.131888 6.41895e-14 -0.0495672 -0.082114 -0.00146631 0.0170107 -0.215603 -4.64288e-14 
0.0487322 -0.110069 -6.22331e-14 0.0308279 -0.0492269 1.67419e-10 -0.013493 -0.0783549 7.64219e-06 
-0.023836 -0.0713053 -6.01743e-06 -0.0657836 -0.150561 -5.43325e-14 -0.0834311 -0.129916 -6.34177e-09 
0.0528025 -0.0461127 -7.01337e-14 0.0321974 -0.211777 -6.22331e-14 0.00410931 -0.0290164 -9.24688e-06 
0.0632898 -0.164296 -1.93781e-10 -0.196451 -0.0721638 -7.80351e-14 -0.0158021 -0.0843748 -2.3075e-10 
0.0749032 -0.13184 -8.99067e-11 -0.0703596 -0.19262 0.0412207 -0.16543 -0.0749504 1.67798e-14 
-0.147591 -0.0617739 2.46819e-14 -0.207955 -0.100323 1.67805e-14 -0.134492 -0.123701 0.0224058 
-0.133239 -0.17001 -0.000211798 -0.10207 -0.100424 -0.00104478 -0.0515001 -0.0874587 9.27313e-07 
-0.022287 -0.101469 3.25833e-14 0.00174516 -0.123609 -2.8956e-13 -0.100898 -0.183743 -7.01337e-14 
0.0819189 -0.0980738 -7.80359e-14 -0.0908126 -0.0969936 8.87996e-15 -0.0762823 -0.0847877 -6.22331e-14 
-0.0212752 -0.235007 -0.000584025 0.00656257 -0.125271 -8.72335e-12 0.0489767 -0.134619 -6.17691e-09 
-0.0980737 -0.0937127 -1.27357e-10 -0.176792 -0.0798606 3.09797e-06 -0.0413033 -0.0566743 7.09448e-14 
-0.0525312 -0.169826 1.38795e-09 -0.0676471 -0.147965 -0.0184037 -0.0608268 -0.0473952 1.21533e-05 
-0.0521305 -0.0451788 -0.0007809 -0.053848 -0.0704437 -6.60691e-15 -0.0447823 -0.0443313 7.00519e-09 
0.1155 -0.0691733 1.67805e-14 -0.202353 -0.0869908 7.99923e-14 0.0316138 -0.0957448 1.03794e-05 
0.0828096 -0.0846491 1.00164e-05 0.192128 -0.0893434 7.20909e-14 0.0715353 -0.366037 -0.0297878 
0.146579 -0.0315779 -2.57174e-08 0.121053 -0.027244 -1.98358e-11 -0.046686 -0.135981 0.000346012 
-0.0305394 -0.0570878 9.78587e-16 -0.0207581 -0.0864518 -0.00716625 -0.0432304 -0.210291 0.00422634 
0.125565 -0.067263 -0.00073751 0.181906 -0.0473008 -9.14403e-12 -0.0440375 -0.00302113 2.75769e-12 
-0.0228559 -0.189251 -0.0292184 -0.0410485 -0.0435486 -0.0962851 -0.00782858 -0.0184553 -3.575e-10 
-0.00733446 -0.195697 0.0137487 0.0737154 -0.0360567 -0.0190259 0.0536163 -0.222882 0.0378911 
-0.114304 -0.036751 -7.80359e-14 -0.136112 -0.0509439 -0.0160266 -0.0852976 0.0241436 -3.42268e-10 
-0.00137615 -0.00456545 -9.39549e-08 -0.0179186 -0.0840312 0.0136566 -0.071538 -0.137288 0.0419724 
0.100754 0.00479008 1.28856e-12 -0.327443 0.0641098 0.0805301 -0.100261 0.0105193 -2.27271e-14 
-0.033123 -0.0330319 -6.22331e-14 -0.0101107 0.109332 0.0112036 -0.0229755 0.00833262 -0.0255196 
-0.0117559 -0.0396096 0.00409193 -0.0101361 -0.0355466 -0.0128765 -0.0410697 -0.0188128 -0.000510113 
-0.115189 -0.0100952 4.04854e-14 -0.114595 -0.0296264 -2.27263e-14 -0.111381 -0.0247977 7.99923e-14 
-0.243151 -0.00682766 0.0447264 -0.0583822 0.0055929 0.00942871 0.0217125 -0.00700414 2.12422e-06 
0.0225519 -0.0167031 -0.00893104 0.0435362 -0.050872 -0.00188357 0.110329 0.0286604 -2.33229e-13 
-0.0959912 0.0834691 -0.00521686 -0.0655035 0.0460008 0.00149972 -0.0681616 0.107916 0.0298072 
-0.0552757 -0.0205739 -7.01337e-14 0.0101537 -0.0242182 1.65796e-05 0.0315234 -0.0425604 0.000997718 
-0.0468366 -0.0613129 -6.39295e-05 -0.0174557 -0.0408148 -0.00653112 0.138607 0.00741525 1.60907e-05 
-0.152383 -0.00313868 -6.22331e-14 -0.0820759 0.00560768 -1.50041e-12 -0.0429559 -0.0071172 7.20901e-14 
-0.0857342 0.0828991 -8.66433e-10 -0.0207667 -0.00520906 3.19236e-07 0.0678332 -0.102453 0.0582464 
0.0318976 0.059191 -9.9798e-08 -0.00280411 0.0767972 3.08085e-06 0.153483 -0.0435867 9.62624e-11 
0.00792872 -0.035577 -1.06421e-05 -0.152815 0.0208366 -4.64288e-14 0.122289 -0.0528564 4.54622e-05 
-0.0222736 0.0426614 -0.056983 -0.116292 -0.0911275 0.0910204 0.00212049 0.000826479 5.3333e-07 
-0.0321146 -0.0472386 0.0201009 0.139033 0.00509115 5.56661e-08 0.141297 -0.0149811 6.06378e-06 
-0.0591561 0.0116008 -2.1477e-11 -0.0393224 0.00410447 0.000247045 -0.0442421 0.0235696 -0.0127769 
0.351777 0.208469 0.17848 0.111336 -0.055127 2.75763e-09 -0.130794 0.0155848 0.000874477 
-0.0658756 0.00308033 -6.92278e-15 -0.110954 -0.0231122 -5.9247e-14 -0.0524542 0.0120627 -1.08322e-13 
-0.056301 -0.168576 0.00129403 -0.0398516 0.11896 -0.0692018 -0.0421374 -0.0155436 0.0113074 
-0.018534 0.0171497 0.00252529 0.0131102 -0.0531047 0.0260426 0.0572479 -0.00995548 1.04186e-12 
0.0884907 -0.0340532 0.000123098 0.112329 -0.0369788 -0.0793183 0.100812 -0.0268953 0.00121188 
-0.244169 0.0115509 -4.64288e-14 -0.0707427 -0.0216026 -6.22324e-14 -0.0893355 0.016921 -2.5153e-07 
0.0562603 -0.109604 0.117704 -0.000566126 0.0104744 -0.000175397 0.0425043 -0.0198202 -5.4058e-12 
0.106383 0.00653226 -0.0565887 0.0153519 0.0118344 0.000638474 0.0539084 0.047335 0.00253502 
0.107977 0.100266 -0.000618393 -0.161868 -0.0339301 0.00745448 -0.126487 -0.000192742 -6.92278e-15 
-0.0763645 0.00317943 0.00661528 0.036382 -0.0244253 -0.0524648 0.0976972 0.101037 0.000106822 
-0.0121178 0.0260961 -1.61923e-06 0.0171232 0.00776747 -0.0409366 0.118678 0.0549605 0.000185711 
0.120675 0.00355795 -4.64296e-14 -0.0447008 0.00755921 -6.22261e-14 -0.110365 0.039917 1.44939e-09 
0.0102833 0.0639448 -0.000186246 -0.0346739 0.0147465 0.0523386 0.0674382 0.0811166 0.0139226 
0.0621149 0.0146926 -0.00510669 0.139474 0.0874011 -0.0226377 0.154376 -0.053045 9.77819e-16 
0.0300345 0.0621746 -0.0018219 -0.167766 0.0350649 7.20901e-14 0.00867071 0.0283529 -0.000590899 
-0.00656608 0.0120687 -0.00641366 0.0109228 -0.0156815 -0.0016467 0.119694 0.101095 -0.00168818 
0.14602 0.130544 0.242053 0.0446117 0.0937528 -0.00996061 0.174291 0.0633417 -6.92356e-15 
0.171406 0.00122047 4.04854e-14 0.00843753 0.0162353 -5.25566e-06 -0.0488783 0.0335064 9.78591e-16 
-0.040235 0.0831537 8.87919e-15 -0.0333961 0.0942486 0.000312637 -0.0602369 0.140356 -0.00709493 
-0.0241235 0.119301 0.00695597 0.0166857 0.0862595 2.32646e-05 0.0406242 -0.0172526 0.00310435 
0.00533824 0.0296522 1.22303e-12 0.00662558 0.147623 0.00257348 0.015963 0.046558 -3.55974e-14 
-0.0513519 0.0311343 3.25833e-14 -0.0557351 0.0735468 -2.81037e-09 -0.0406774 0.071774 -0.00186739 
-0.0464273 0.112936 -0.00501689 0.00720251 0.128897 -0.00328257 0.0676118 0.0720251 -8.59364e-14 
-0.0184359 -0.00580849 0.00283732 -0.025015 0.0924425 2.17781e-05 0.040162 0.0794352 3.72695e-07 
0.0590057 0.0494184 -5.43325e-14 0.0267461 0.128153 2.27625e-07 -0.0120056 -0.00410937 -0.0535451 
-0.0688001 0.0874236 7.0467e-09 -0.0656186 -0.0419395 6.16349e-05 -0.023387 0.0512459 0.00575384 
0.0277392 0.0809722 4.83852e-14 0.0626426 0.0671174 7.99915e-14 0.0724148 0.0488648 4.83852e-14 
0.272459 0.123935 -0.0291258 -0.0723146 0.10641 -5.34258e-07 0.00131626 0.0799643 1.16014e-11 
-0.063783 0.0710503 0.0116346 0.0072485 0.0900264 0.00422742 0.00238527 0.0738573 -3.06728e-14 
0.202941 0.178992 6.57498e-06 -0.0373862 0.13464 -0.00699779 0.00132283 0.0974567 4.44679e-13 
0.0207174 0.0746352 -2.23855e-10 0.0262607 0.10509 -7.01345e-14 0.0296364 0.161358 -3.06269e-14 
-0.0786047 0.0960862 -3.06276e-14 0.121184 0.127911 7.20909e-14 0.0970728 0.0826909 -0.0205392 
0.0854855 0.0865169 1.67805e-14 -0.041004 0.0866999 5.62866e-14 -0.0631411 0.157312 -6.92355e-15 
-0.0212892 0.121857 -5.43318e-14 0.0620083 0.133988 7.20901e-14 0.0383741 0.112553 -0.000191335 
-0.0624609 0.0634363 7.99915e-14 0.0266883 0.0926467 -1.25788e-09 -0.0331029 0.12362 -5.43325e-14 
-0.0347847 0.0958445 -7.80359e-14 0.116987 0.0990845 -4.64288e-14 0.244382 0.10979 1.67805e-14 
0.0395284 0.0702911 -5.49584e-15 -0.00348859 0.116333 -1.48327e-14 0.00484292 0.101906 5.62874e-14 
0.0819195 0.196512 -1.48249e-14 0.0897284 0.0922176 -6.92355e-15 -0.380326 0.485548 -1.92217e-10 
-0.276491 0.116283 5.62866e-14 -0.0942036 0.219228 0.133201 -0.00217578 0.111984 5.62874e-14 
0.0179084 0.160334 -7.80359e-14 0.0674929 0.110858 8.87996e-15 0.037703 0.113635 -7.01345e-14 
0.204566 0.172638 7.99923e-14 -0.205584 0.178029 2.46819e-14 0.143523 0.216519 9.78591e-16 
0.0165436 0.139171 -6.22323e-14 0.276561 0.1442 3.25825e-14 -0.0338103 0.133459 -3.85298e-14 
0.255167 0.172086 -5.43318e-14 0.0808479 0.158322 -7.80359e-14 -0.100144 0.153771 9.78584e-16 
0.0931124 0.163339 7.99923e-14 -0.0534662 -0.0888359 -3.8529e-14 0.0455602 0.163079 9.77821e-16 
0.0223214 0.0417926 3.25833e-14 0.0395325 -0.0270917 1.1736e-10 0.00996573 0.0386905 2.46827e-14 
-0.0400439 -0.10397 5.62866e-14 0.0454476 0.170612 7.20909e-14 -0.0108942 0.229031 1.67798e-14 
0.163588 -0.0422013 3.23144e-13 0.281829 0.407321 4.04847e-14 0.0931829 -0.278324 -0.0371909 
0.00723857 -0.447485 -8.37449e-09 -0.0573863 -0.244842 2.05739e-08 -0.0733486 -0.185681 -5.20335e-14 
0.058916 -0.199315 6.66945e-14 0.00360401 -0.202338 -1.51318e-06 -0.0489937 -0.15667 4.08862e-14 
-0.0964228 -0.167457 -1.07378e-14 -0.0199315 -0.19591 1.52099e-06 0.0458811 -0.17868 -4.11573e-16 
-0.325288 -0.240484 7.18587e-14 -0.0333583 -0.105801 -1.80559e-05 -0.0301607 -0.217836 4.60472e-14 
0.0257262 -0.141495 2.02368e-14 -0.0140938 -0.142998 -8.31101e-14 -0.0745446 -0.333605 -9.85829e-07 
0.00471361 -0.0463372 4.14665e-05 -0.0320636 -0.0965842 -2.98637e-06 -0.0874134 -0.156884 -0.0455383 
-0.0427512 -0.085448 5.63704e-14 0.165021 -0.223064 0.0162374 0.108977 -0.143427 -0.00051733 
-0.142487 -0.138625 0.0568584 -0.032158 -0.0949471 1.50737e-14 0.0429012 -0.295493 0.0157642 
-0.0700904 -0.112641 -0.0595392 -0.0106089 -0.0504035 0.00399393 -0.00391743 -0.0514013 -0.00321896 
-0.107693 -0.116468 6.71974e-12 -0.0556622 -0.0696509 -2.1061e-14 -0.0120524 -0.15705 4.23725e-12 
-0.0124141 -0.486088 -0.202205 0.0649338 -0.103674 4.74947e-15 0.0332398 -0.0174985 8.16032e-08 
0.00865897 -0.0996364 -0.17114 -0.203841 -0.105505 0.125585 0.0428521 0.0241034 -0.0529724 
0.0273302 -0.351626 0.0489933 0.0358507 -0.110557 3.48164e-07 0.0815681 -0.388 0.222298 
0.120592 -0.0390475 2.24778e-08 -0.226406 -0.0263306 3.57209e-14 -0.0493103 -0.0107287 -1.58989e-14 
0.00537117 -0.022908 0.031232 -0.00420661 -0.0757489 5.68211e-05 0.0694659 -0.281654 -0.227199 
-0.380189 -0.447851 -0.245624 -0.000712298 -0.0209097 0.00146558 0.0147833 -0.07727 0.000610691 
0.106292 -0.152299 -0.0424431 0.162362 -0.0655347 -0.000930216 0.179246 -0.0547185 -1.11639e-09 
0.191688 -0.0361798 -4.12611e-16 0.091237 0.148009 0.104878 0.0121798 0.0344452 0.00910891 
0.0923859 0.0606038 -0.000638533 0.0126235 -0.117612 3.56606e-06 -0.00630472 -0.0442885 -0.0152929 
0.0210297 0.0322379 0.149734 0.000368313 -0.00611734 1.1897e-08 -0.0101745 -0.0165936 -0.0130593 
-0.0412518 -0.119575 0.0428317 -0.0386632 -0.0802036 -0.0617244 0.11581 -0.0619797 8.38415e-07 
0.120154 -0.0159402 7.49205e-06 0.175795 -0.0260702 -5.20324e-14 -0.12054 -0.0303214 -1.0623e-06 
-0.085981 -0.037875 0.00141186 -0.115637 0.0547974 -0.00264549 -0.0381241 -0.0147484 -0.177564 
-0.102171 -0.0231909 -0.00792044 -0.0702341 0.0458984 0.066122 -0.00288372 -0.0312184 -0.00442727 
-0.0365181 -0.0211693 -0.0237747 -0.0596388 -0.0760886 -0.0119294 -0.0387324 -0.0294052 -0.0139004 
0.098442 -0.0576296 -0.120845 0.143106 -0.0358268 -0.00118143 -0.109237 -0.0234629 -2.35039e-09 
-0.184842 0.0517204 0.0603178 0.0599551 -0.0870224 -0.466061 0.013033 -0.0677607 -0.00521255 
0.0300156 -0.0673156 -0.192937 0.0439623 -0.0305465 -0.0364182 0.0408231 -0.016051 2.95082e-07 
0.175318 0.0573019 -0.0187926 -0.0346013 -0.024764 -1.07378e-14 -0.230949 0.221247 0.0459763 
-0.283076 -0.101658 0.108089 -0.0453439 -0.126262 0.0702771 0.059653 -0.0298736 -0.00662612 