# vtk DataFile Version 4.0
Generated by LIGGGHTS
ASCII
DATASET POLYDATA
POINTS 218 float
-0.0167637 -0.0602874 0.0114983 -0.0164675 -0.0373349 0.0114983 -0.00431928 -0.0341126 0.0114983 
0.0222304 -0.0312446 0.0117867 0.0387398 -0.0318132 0.0114983 -0.0332092 -0.0289073 0.0114983 
-0.0347504 -0.0260937 0.0114983 -0.0326357 -0.023746 0.0114983 -0.0209438 -0.0258202 0.0116137 
0.00657578 -0.0257465 0.0116878 0.0178406 -0.0249856 0.0114983 -0.00613845 -0.0217901 0.0114983 
-0.00157726 -0.0205702 0.0114983 0.0122618 -0.0207791 0.0120894 -0.0345967 -0.0167934 0.0114983 
-0.0296322 -0.0171532 0.0115942 -0.0107676 -0.0192168 0.0114983 -0.0234793 -0.0145606 0.0122313 
-0.0205449 -0.0151024 0.0114987 -0.0174896 -0.0152962 0.0114981 -0.0122222 -0.0142851 0.011502 
0.00427169 -0.0142859 0.0113973 0.0144089 -0.0134129 0.0114889 0.0291693 -0.0157923 0.0114983 
0.0344355 -0.012847 0.0114983 -0.0230045 -0.00681548 0.0115126 -1.18532e-05 -0.00839238 0.0115045 
0.00451178 -0.00763862 0.0116474 0.0109278 -0.0073183 0.0118642 0.0131633 -0.00534239 0.0114901 
0.021641 -0.00696816 0.0115479 -0.0103744 -0.00199062 0.0116856 -4.10524e-05 -0.00255293 0.0114982 
-0.0214194 0.00234199 0.011543 0.00349894 0.00203449 0.0118666 -0.0170689 0.0024561 0.0115058 
-0.0140565 0.00263301 0.0117562 0.0260359 0.00130897 0.0122555 -0.00636335 0.0111611 0.0114983 
0.0086055 0.0111477 0.0114983 0.0158259 0.0121802 0.011889 -0.0152907 0.0131329 0.0114984 
-0.00956121 0.0138724 0.0115029 -0.00664147 0.0147732 0.0115336 0.0171533 0.0149612 0.0114984 
0.00940292 0.0191345 0.0121957 0.0138994 0.0171544 0.0116728 -0.0137434 0.0203196 0.0114961 
0.01473 0.0234261 0.0123368 0.0174912 0.0204943 0.0114989 -0.00724681 0.0265245 0.0115178 
0.00300121 0.0253752 0.011471 -0.0734253 0.0291427 0.0114983 -0.0135001 0.0271633 0.011498 
-0.0028997 0.0291225 0.0114984 0.00833989 0.0274663 0.0114978 0.0201274 0.028574 0.0114994 
0.000863086 0.032768 0.0114983 0.00460077 0.0357105 0.0115984 0.0220262 0.0591718 0.0114983 
0.0487771 0.0593729 0.0114983 -0.000579476 -0.0455085 0.0126425 0.0112131 -0.0360897 0.0124961 
-0.00449767 -0.0323461 0.015141 -0.0150955 -0.0297189 0.0136183 0.0144768 -0.0285139 0.0131406 
-0.0396562 -0.0243843 0.0124943 -0.00969385 -0.024177 0.0126175 -0.00615122 -0.0264232 0.0138573 
-0.0202244 -0.0211081 0.0124943 -0.0164543 -0.0218064 0.0115865 -0.0281996 -0.0193709 0.0139606 
0.00608431 -0.0174094 0.0123105 0.0120566 -0.0182378 0.0140645 0.017597 -0.0162115 0.0127088 
-0.0112606 -0.0157067 0.0140323 -0.00224773 -0.0143838 0.0124817 0.00238765 -0.016245 0.0141779 
0.00977422 -0.0144664 0.0125035 0.0137922 -0.0140024 0.0143585 -0.0405231 -0.0105358 0.0124961 
-0.0239283 -0.0103739 0.0132558 -0.0070904 -0.00952215 0.0131097 0.00220677 -0.00904128 0.0149758 
0.00518287 -0.0126014 0.0136818 0.0256982 -0.00905621 0.0124957 -0.0215066 -0.00531508 0.0143138 
-0.00228719 -0.0081003 0.0136499 -0.0325864 -0.00432881 0.014791 -0.0109244 -0.00446324 0.0151543 
-0.000921236 -0.00508576 0.0135539 0.00413342 -0.00450364 0.014082 0.0108482 -0.00469892 0.0132696 
0.0146209 -0.00179278 0.0126278 0.0401302 -0.00232693 0.0124961 -0.0219362 -0.000329161 0.0145608 
-0.0158594 -0.00180242 0.0124976 -0.0133575 0.00252163 0.0157407 -0.00372818 0.00103871 0.0123142 
0.00693529 0.000926602 0.0130596 0.0102523 -0.000779656 0.0149101 -0.0183979 0.00370385 0.0143886 
-0.00804296 0.00207995 0.0124672 -0.00418633 0.00475243 0.0157258 -0.000520203 0.00394498 0.0124819 
0.00772467 0.00315345 0.0149131 0.0110779 0.00421689 0.0129128 -0.0167727 0.00647063 0.0155055 
0.00504447 0.00816257 0.0126026 0.0138203 0.00841471 0.0125466 0.0165064 0.00820297 0.015987 
-0.0160402 0.00927104 0.0126746 -0.0107168 0.00919507 0.0128507 -0.00142237 0.010572 0.012488 
0.0176768 0.0127104 0.0146854 0.0197185 0.00898436 0.0126758 0.0043655 0.0134452 0.0125068 
0.0131578 0.0139554 0.0145069 0.0214399 0.0151998 0.0125377 0.0263982 0.0131631 0.0130955 
-0.0314294 0.0173774 0.0126619 -0.0242205 0.0184217 0.0124955 -0.0125172 0.0163673 0.0125199 
0.00496373 0.0177789 0.0121192 -0.011963 0.0235631 0.0117282 -0.000800884 0.0196325 0.012496 
0.0069757 0.0224709 0.0128091 -0.0161062 0.0237385 0.0124931 -0.00607986 0.024028 0.0128951 
-0.00191843 0.0251086 0.0135978 0.0219622 0.0246101 0.0139938 0.00418422 0.0299203 0.0153876 
0.00900148 0.0276265 0.0146467 0.0147119 0.0283317 0.0124961 -0.0130764 0.0430723 0.0124961 
-0.00357317 -0.0267429 0.0156546 0.00586084 -0.024941 0.0157385 0.0247132 -0.0163637 0.0180004 
0.00695969 -0.0142521 0.0154677 0.0161161 -0.0143139 0.0166097 -0.025938 -0.0100718 0.019687 
0.00757523 -0.00899819 0.0141586 0.0192488 -0.00825137 0.0183333 -0.00924079 0.000426727 0.0159132 
0.000611427 0.000886301 0.017338 -0.0312533 0.003673 0.01945 -0.0202844 0.00838708 0.0175223 
0.000905535 0.00649768 0.0159318 0.00745143 0.0067263 0.0178559 0.00323436 0.0111915 0.0158053 
0.0232065 0.0100355 0.0157869 0.0280302 0.00830997 0.0190848 0.0162649 0.0130655 0.0174409 
-0.0103262 0.0192859 0.0168201 0.0153529 0.0189017 0.013929 -0.0349031 0.0193884 0.016303 
0.0247988 0.0225695 0.0183957 -0.00949784 0.0252355 0.017399 0.00621304 -0.0311641 0.0194083 
-0.0149684 -0.0194016 0.0143899 -0.00211318 -0.0149001 0.0173488 -0.00620395 -0.0023852 0.0165946 
0.00788888 -0.00229548 0.019215 0.00736214 0.00300331 0.0205044 -0.024344 0.00996244 0.0165908 
-0.00254506 0.00983168 0.0206731 -0.017457 0.0237329 0.0191298 0.0176274 -0.0210221 0.0178643 
-0.0117625 0.00142762 0.0226355 0.00227555 -0.0237577 0.0227245 -0.010544 -0.0118938 0.0217801 
-0.00259347 -0.0013081 0.0246025 0.00961046 0.010761 0.0232251 0.0104257 -0.0122322 0.0251446 
-0.0020146 -0.00766097 0.0253623 -0.019645 0.0174797 0.0251585 0.0196195 0.01819 0.0258636 
-0.0162248 0.0196992 0.0256865 -0.0223141 0.0247413 0.0260563 0.0177923 -0.0178195 0.0307163 
-0.00123388 -0.0148077 0.0314706 -0.019225 -0.0106413 0.0305079 0.02065 -0.00638004 0.030488 
-0.013453 0.0137197 0.0300128 0.0105116 0.0170382 0.0309938 0.0167275 0.0164316 0.0334592 
0.000931936 -0.00367611 0.0363976 -0.0130662 0.00577867 0.0381634 -0.00303882 0.00682436 0.0377463 
0.00951168 0.0056381 0.0366637 0.00373449 0.0210182 0.0373195 -0.0248768 -0.0204141 0.0400643 
-0.0119532 -0.019775 0.0426735 -0.0111734 -0.0147687 0.0410983 -0.00119726 -0.00498588 0.0428781 
0.0132075 0.00420142 0.0404227 0.0182944 0.00274994 0.0416247 0.0102947 0.0177878 0.0396658 
-0.0249735 0.0216061 0.0411235 0.00912044 0.0196858 0.046245 0.0190177 -0.0200592 0.0486906 
-0.0222831 -0.0064382 0.0475015 -0.0214833 0.00593738 0.0500228 -0.00405072 0.00616981 0.0488498 
-0.0195445 0.0136429 0.0493706 -0.00971515 0.0175278 0.047629 -0.023577 -0.0101598 0.0534725 
0.0107295 -0.011956 0.0523009 0.0237105 -0.00678445 0.0508096 0.00475661 0.0133846 0.0531587 
-0.0203016 -0.0214996 0.0569924 -0.0222802 -0.010112 0.0563148 0.018307 0.00211033 0.0558258 
-0.0110295 -0.0179143 0.0582081 0.0181279 -0.0106254 0.0591583 -0.0225851 0.0119118 0.0575076 
0.00603572 0.0106745 0.0592978 -0.0232835 0.0234948 0.0604327 
VERTICES 218 436
1 0 
1 1 
1 2 
1 3 
1 4 
1 5 
1 6 
1 7 
1 8 
1 9 
1 10 
1 11 
1 12 
1 13 
1 14 
1 15 
1 16 
1 17 
1 18 
1 19 
1 20 
1 21 
1 22 
1 23 
1 24 
1 25 
1 26 
1 27 
1 28 
1 29 
1 30 
1 31 
1 32 
1 33 
1 34 
1 35 
1 36 
1 37 
1 38 
1 39 
1 40 
1 41 
1 42 
1 43 
1 44 
1 45 
1 46 
1 47 
1 48 
1 49 
1 50 
1 51 
1 52 
1 53 
1 54 
1 55 
1 56 
1 57 
1 58 
1 59 
1 60 
1 61 
1 62 
1 63 
1 64 
1 65 
1 66 
1 67 
1 68 
1 69 
1 70 
1 71 
1 72 
1 73 
1 74 
1 75 
1 76 
1 77 
1 78 
1 79 
1 80 
1 81 
1 82 
1 83 
1 84 
1 85 
1 86 
1 87 
1 88 
1 89 
1 90 
1 91 
1 92 
1 93 
1 94 
1 95 
1 96 
1 97 
1 98 
1 99 
1 100 
1 101 
1 102 
1 103 
1 104 
1 105 
1 106 
1 107 
1 108 
1 109 
1 110 
1 111 
1 112 
1 113 
1 114 
1 115 
1 116 
1 117 
1 118 
1 119 
1 120 
1 121 
1 122 
1 123 
1 124 
1 125 
1 126 
1 127 
1 128 
1 129 
1 130 
1 131 
1 132 
1 133 
1 134 
1 135 
1 136 
1 137 
1 138 
1 139 
1 140 
1 141 
1 142 
1 143 
1 144 
1 145 
1 146 
1 147 
1 148 
1 149 
1 150 
1 151 
1 152 
1 153 
1 154 
1 155 
1 156 
1 157 
1 158 
1 159 
1 160 
1 161 
1 162 
1 163 
1 164 
1 165 
1 166 
1 167 
1 168 
1 169 
1 170 
1 171 
1 172 
1 173 
1 174 
1 175 
1 176 
1 177 
1 178 
1 179 
1 180 
1 181 
1 182 
1 183 
1 184 
1 185 
1 186 
1 187 
1 188 
1 189 
1 190 
1 191 
1 192 
1 193 
1 194 
1 195 
1 196 
1 197 
1 198 
1 199 
1 200 
1 201 
1 202 
1 203 
1 204 
1 205 
1 206 
1 207 
1 208 
1 209 
1 210 
1 211 
1 212 
1 213 
1 214 
1 215 
1 216 
1 217 

POINT_DATA 218
FIELD FieldData 7
id 1 218 int
48 82 59 52 12 71 47 107 83 
50 19 18 85 76 45 9 32 84 
74 96 36 8 10 11 23 64 63 
75 108 136 109 102 126 33 72 114 
61 125 99 70 49 21 38 20 22 
98 65 51 149 34 7 135 57 13 
26 95 39 24 35 37 46 30 2 
89 90 105 16 92 6 4 160 137 
112 110 29 127 42 119 68 97 40 
67 14 15 152 3 153 25 94 131 
146 141 101 115 79 91 41 106 140 
123 129 133 55 60 81 121 5 86 
27 17 165 69 88 103 87 93 44 
53 54 62 43 66 80 100 147 28 
128 1 58 104 159 78 113 31 56 
73 142 132 161 164 157 154 139 162 
145 130 122 151 143 148 111 144 163 
118 166 117 134 138 77 155 167 158 
156 120 177 116 124 173 150 168 174 
179 171 170 172 178 175 169 176 189 
192 181 184 190 188 187 185 183 186 
180 191 197 202 204 193 198 201 182 
196 194 200 205 210 195 203 199 211 
208 207 216 206 217 213 218 214 212 
215 209 
type 1 218 int
1 1 1 1 1 1 1 1 1 
1 1 1 1 1 1 1 1 1 
1 1 1 1 1 1 1 1 1 
1 1 1 1 1 1 1 1 1 
1 1 1 1 1 1 1 1 1 
1 1 1 1 1 1 1 1 1 
1 1 1 1 1 1 1 1 1 
1 1 1 1 1 1 1 1 1 
1 1 1 1 1 1 1 1 1 
1 1 1 1 1 1 1 1 1 
1 1 1 1 1 1 1 1 1 
1 1 1 1 1 1 1 1 1 
1 1 1 1 1 1 1 1 1 
1 1 1 1 1 1 1 1 1 
1 1 1 1 1 1 1 1 1 
1 1 1 1 1 1 1 1 1 
1 1 1 1 1 1 1 1 1 
1 1 1 1 1 1 1 1 1 
1 1 1 1 1 1 1 1 1 
1 1 1 1 1 1 1 1 1 
1 1 1 1 1 1 1 1 1 
1 1 1 1 1 1 1 1 1 
1 1 1 1 1 1 1 1 1 
1 1 1 1 1 1 1 1 1 
1 1 
i 3 218 int
0 0 0 0 0 0 0 0 0 
0 0 0 0 0 0 0 0 0 
0 0 0 0 0 0 0 0 0 
0 0 0 0 0 0 0 0 0 
0 0 0 0 0 0 0 0 0 
0 0 0 0 0 0 0 0 0 
0 0 0 0 0 0 0 0 0 
0 0 0 0 0 0 0 0 0 
0 0 0 0 0 0 0 0 0 
0 0 0 0 0 0 0 0 0 
0 0 0 0 0 0 0 0 0 
0 0 0 0 0 0 0 0 0 
0 0 0 0 0 0 0 0 0 
0 0 0 0 0 0 0 0 0 
0 0 0 0 0 0 0 0 0 
0 0 0 0 0 0 0 0 0 
0 0 0 0 0 0 0 0 0 
0 0 0 0 0 0 0 0 0 
0 0 0 0 0 0 0 0 0 
0 0 0 0 0 0 0 0 0 
0 0 0 0 0 0 0 0 0 
0 0 0 0 0 0 0 0 0 
0 0 0 0 0 0 0 0 0 
0 0 0 0 0 0 0 0 0 
0 0 0 0 0 0 0 0 0 
0 0 0 0 0 0 0 0 0 
0 0 0 0 0 0 0 0 0 
0 0 0 0 0 0 0 0 0 
0 0 0 0 0 0 0 0 0 
0 0 0 0 0 0 0 0 0 
0 0 0 0 0 0 0 0 0 
0 0 0 0 0 0 0 0 0 
0 0 0 0 0 0 0 0 0 
0 0 0 0 0 0 0 0 0 
0 0 0 0 0 0 0 0 0 
0 0 0 0 0 0 0 0 0 
0 0 0 0 0 0 0 0 0 
0 0 0 0 0 0 0 0 0 
0 0 0 0 0 0 0 0 0 
0 0 0 0 0 0 0 0 0 
0 0 0 0 0 0 0 0 0 
0 0 0 0 0 0 0 0 0 
0 0 0 0 0 0 0 0 0 
0 0 0 0 0 0 0 0 0 
0 0 0 0 0 0 0 0 0 
0 0 0 0 0 0 0 0 0 
0 0 0 0 0 0 0 0 0 
0 0 0 0 0 0 0 0 0 
0 0 0 0 0 0 0 0 0 
0 0 0 0 0 0 0 0 0 
0 0 0 0 0 0 0 0 0 
0 0 0 0 0 0 0 0 0 
0 0 0 0 0 0 0 0 0 
0 0 0 0 0 0 0 0 0 
0 0 0 0 0 0 0 0 0 
0 0 0 0 0 0 0 0 0 
0 0 0 0 0 0 0 0 0 
0 0 0 0 0 0 0 0 0 
0 0 0 0 0 0 0 0 0 
0 0 0 0 0 0 0 0 0 
0 0 0 0 0 0 0 0 0 
0 0 0 0 0 0 0 0 0 
0 0 0 0 0 0 0 0 0 
0 0 0 0 0 0 0 0 0 
0 0 0 0 0 0 0 0 0 
0 0 0 0 0 0 0 0 0 
0 0 0 0 0 0 0 0 0 
0 0 0 0 0 0 0 0 0 
0 0 0 0 0 0 0 0 0 
0 0 0 0 0 0 0 0 0 
0 0 0 0 0 0 0 0 0 
0 0 0 0 0 0 0 0 0 
0 0 0 0 0 0 
v 3 218 double
-0.176594 -0.47915 -6.75855e-13 -0.116053 -0.28278 -5.43082e-14 0.0327074 -0.220266 7.68083e-13 
-0.190203 -0.122364 0.0179899 0.220331 -0.255345 1.13952e-09 -0.254214 -0.0469851 8.10105e-07 
-0.189446 -0.0604643 4.07155e-10 -0.194351 -0.0415146 3.06691e-07 0.0567112 -0.287439 -0.115542 
0.0477903 -0.121034 0.018462 0.152917 -0.112595 0.000121993 0.125572 -0.021747 6.13313e-11 
0.152188 -0.0608009 6.20536e-11 0.0436856 -0.121354 0.029296 -0.218995 -0.121613 1.67798e-14 
-0.185208 -0.169498 -0.0233416 -0.0616484 -0.0424585 3.05835e-14 0.0149032 -0.00906993 0.153903 
-0.0123366 -0.110419 -0.00120319 0.021287 -0.0297476 0.00111689 -0.102529 -0.0176038 -0.0340084 
0.087469 -0.0447699 0.101416 0.0213313 -0.125517 0.00765547 0.0627845 -0.0860195 -5.43305e-14 
0.1155 -0.0691733 1.67805e-14 -0.175536 -0.153759 -0.0322842 0.0107155 -0.0151423 -0.0290283 
0.0386937 -0.0408617 0.0378697 0.0608249 -0.132877 0.346803 0.0569785 -0.0269215 -0.0106912 
0.0773689 -0.160286 -0.0782781 -0.0977124 0.164411 0.0501628 -0.184994 0.187216 -0.000573776 
-0.106131 0.158342 0.0373817 0.14121 0.0973521 -0.00103072 -0.15389 0.0583027 0.00141331 
-0.13657 0.0197596 0.0976347 0.0404158 -0.252912 -0.0223674 -0.00398474 -0.0254701 1.01381e-10 
-0.0291826 0.0625131 0.00180963 -0.0114811 0.0792057 0.0772625 -0.0153532 0.031418 0.000283476 
0.009091 -0.00151165 -0.000653103 -0.0228307 0.0410584 -0.0627274 0.0802084 0.0628797 0.000992738 
-0.0536801 0.202689 0.0353209 -0.0481794 -0.0661885 0.253875 -0.0613862 0.100688 -0.00409032 
0.262533 0.480592 0.106334 0.181492 0.110423 0.0244236 0.0327459 0.139749 -0.0213956 
0.0781989 0.0744886 -0.0612477 -0.629838 0.12889 -1.29027e-13 0.00674042 0.119338 0.00567823 
0.0315769 0.0827793 0.000468488 0.0862591 0.170449 -0.00101182 0.00528012 0.00708531 -0.00701493 
0.0455602 0.163079 -2.60215e-06 0.0595257 0.201397 -0.0275357 -0.0219057 0.558921 -1.48249e-14 
0.416908 0.378014 7.20901e-14 -0.0525494 -0.211392 -0.080754 0.0599918 -0.0939849 3.57199e-14 
-0.0148461 -0.323281 -0.0495476 -0.120644 -0.119359 -0.26951 0.198484 -0.272563 -0.0145624 
-0.193462 -0.0108098 0.00117657 0.158443 -0.0460162 -0.00954166 0.00350468 -0.182389 -0.230833 
-0.141077 -0.15521 0.0054638 0.110056 -0.0192421 0.103742 -0.255002 -0.300505 0.0383728 
-0.107044 -0.110075 -0.150481 0.0338433 -0.1276 0.084955 0.133666 0.0622593 0.0930273 
0.112693 0.0105171 -0.0394712 0.0455641 -0.0788601 -0.187221 0.0809694 -0.368768 0.03026 
-0.0165658 -0.101235 0.0590196 0.0713422 -0.0530032 0.0314125 -0.20873 -0.126324 2.69285e-14 
-0.0456118 0.0103279 0.0735913 -0.0624119 -0.0408077 -0.273583 -0.0440642 -0.133155 -0.0293504 
0.0371117 0.191682 -0.0620577 -0.0681072 0.0272327 0.000178947 -0.11785 0.0021329 -0.0268033 
-0.036002 -0.0561034 -0.065245 -0.261877 -0.0237767 -0.250057 -0.0917568 -0.0368164 0.0466232 
-0.323497 -0.0501218 -0.144497 -0.0332183 -0.0590824 -0.0249709 0.111569 -0.172065 -0.117593 
-0.0347711 0.0829842 -0.00617628 0.256484 -0.00797417 -4.07521e-09 -0.263488 0.0435186 -0.00249504 
-0.161918 -0.0412888 -0.00185835 -0.306818 0.274946 0.191189 -0.0544198 0.0361369 -0.0775625 
-0.133369 -0.106897 -0.10338 -0.065731 -0.1595 -0.141175 -0.35865 0.12538 -0.134455 
0.00717 0.0202794 0.0325996 -0.0183801 0.201011 0.0205006 -0.00595598 0.0257324 0.00125286 
-0.108884 -0.0127969 -0.0459066 -0.019244 0.0852117 0.107192 -0.088532 -0.000601108 -0.0559152 
-0.0140246 0.00331335 0.0249205 -0.00940106 0.112076 -0.00151057 0.00609275 -0.132056 0.136863 
-0.0450647 0.0294697 -0.0291425 -0.0696435 0.00852481 -0.114184 -0.0243277 -0.0065807 -0.0581609 
0.149283 0.25964 0.0816863 -0.00724754 0.0387202 -0.11917 -0.0229944 0.00318785 -0.00603423 
0.0606115 0.0863493 0.099103 0.0158495 0.0867368 0.0501904 0.0784746 0.158069 0.0554502 
-0.113892 0.10396 -0.0521799 -0.118369 0.127229 0.00134823 0.0706019 0.0803317 0.0281591 
-0.350287 0.153142 -0.218715 -0.0114153 0.449687 -0.395498 0.000954808 0.00226854 -2.37117e-05 
0.0689889 0.0469736 -0.0176816 0.0212536 0.109598 -0.0145328 -0.0149528 0.141511 0.0777787 
0.135637 0.0979506 -0.0955161 0 0 0.324178 0.169253 0.161871 -0.0879012 
0.0330794 0.182735 0.00622177 0.187574 0.179532 -2.99404e-06 0.0746261 0.317827 7.70208e-14 
0.055775 -0.171865 -0.252508 -0.228737 -0.0795509 -0.083746 0 0 0.213424 
-0.339998 -0.109875 -0.0692979 0.162037 0.108579 -0.0815099 -0.204489 0.0564939 0.291429 
-0.473357 -0.228101 0.12402 0 0 0.139376 0.0308908 -0.184513 0.0293289 
-0.305389 -0.0681167 0.199966 -0.530346 0.134658 0.172662 0.260691 -0.101164 -0.226725 
0.0753937 0.068432 -0.0651705 -0.167523 -0.211561 0.139485 0.133699 0.238949 -0.0347193 
0.21377 0.159183 -0.182559 0.242406 -0.125647 0.21992 -0.409362 -0.099098 -0.00969335 
-0.250937 0.184186 -0.0360022 0.351042 0.412089 0.0962038 -0.332601 -0.0188973 -0.0476022 
0 0 0.144475 -0.0849511 0.183489 0.113079 0.0172949 -0.237024 -0.160124 
-0.000436739 0.00164479 -1.30642 -0.229649 0.0145616 -0.553659 0.316359 -0.217641 -1.02329 
-0.302688 -0.339313 -0.244874 -0.210549 -0.458329 0.0506185 -0.260691 0.101164 -0.957312 
0.118222 0.023387 0.0259201 -0.368007 -0.00251134 -0.248724 0 0 -1.29219 
0.126027 0.175953 -0.0865187 0 0 -1.25472 0 0 -1.26207 
0 0 -1.24 0 0 -1.25079 0 0 -1.23569 
0 0 -1.23392 0 0 -1.23559 0 0 -1.23 
0 0 -1.23137 0 0 -1.22843 0 0 -1.19066 
0 0 -1.18438 0 0 -1.19233 0 0 -1.19252 
0 0 -1.19645 0 0 -1.1883 0 0 -1.1678 
0 0 -1.14288 0 0 -1.12758 0 0 -1.13121 
0 0 -1.14053 0 0 -1.13494 0 0 -1.1109 
0 0 -1.08765 0 0 -1.10178 0 0 -1.08579 
0 0 -1.10776 0 0 -1.09707 0 0 -1.11443 
0 0 -1.10158 0 0 -1.05499 0 0 -1.03193 
0 0 -1.04321 0 0 -1.01918 0 0 -1.03046 
0 0 -1.02546 0 0 -1.04204 -0 -0 -1 
-0 -0 -1 0 0 -1.01162 -0 -0 -1 
-0 -0 -1 -0 -0 -1 -0 -0 -1 
-0 -0 -1 -0 -0 -1 -0 -0 -1 
-0 -0 -1 -0 -0 -1 
f 3 218 double
6.46378e-16 1.77022e-15 8.03822e-15 1.92343e-17 2.13254e-17 -1.68051e-18 1.27019e-16 -8.79059e-16 -1.14335e-15 
0 0 -0.000346714 9.47897e-13 -1.09851e-12 5.9732e-10 -9.80922e-10 -1.81299e-10 1.51238e-07 
-4.10757e-13 -1.31096e-13 -2.53178e-12 -3.12625e-10 -6.67788e-11 6.5257e-09 0 0 -0.000346714 
0 0 -0.000346714 9.61921e-08 -7.08244e-08 1.22215e-05 4.39098e-14 -7.60506e-15 -8.27492e-12 
5.66477e-14 -1.83505e-14 -5.23647e-12 0 0 -0.000346714 -3.69126e-18 9.84033e-19 0 
0 0 -0.000346714 -1.45818e-17 -7.33267e-18 6.87113e-16 0 0 -0.000346714 
-1.08019e-06 -1.83917e-06 -3.0222e-05 -0.000172221 2.03849e-05 1.31515e-07 0 0 -0.000346714 
0.00479633 0.00459309 0.0155539 0.000437866 0.000381802 0.00288157 -1.43031e-17 1.42733e-17 -1.0842e-19 
-9.15348e-18 1.34714e-17 0 0 0 -0.000346714 0 0 -0.000346714 
0.00585361 -0.00846043 -0.00521588 0.000600097 -0.0411192 -0.0026798 0.0013111 -0.00989937 -0.00619271 
0 0 -0.000346714 0 0 -0.000346714 6.08604e-07 -7.42862e-07 6.92344e-05 
0 0 -0.000346714 0 0 -0.000346714 0 0 -0.000346714 
0 0 -0.000346714 0 0 -0.000346714 -2.72233e-15 -1.74018e-14 -4.973e-11 
-2.78901e-07 5.95043e-07 -0.00010902 0 0 -0.000346714 -2.5428e-08 4.648e-08 -5.37278e-05 
-0.000409033 0.000291625 -0.00036614 0 0 -0.000346714 -2.15536e-05 -0.000130714 -8.17568e-05 
0 0 -0.000346714 0 0 -0.000346714 3.32495e-06 -1.48366e-06 0.0012469 
0 0 -0.000346714 -1.0543e-05 8.94855e-06 -0.00169031 0 0 -0.000346714 
0.0056606 -0.000538916 0.0342024 3.14458e-16 -6.35239e-17 -6.00642e-14 1.93024e-07 3.18586e-06 -0.000285826 
8.09638e-08 2.11943e-07 -4.10594e-05 -7.43156e-07 -1.45134e-06 0.000253958 -1.62079e-08 -2.17491e-08 0.00011998 
-6.55701e-10 -2.34704e-09 1.98591e-07 0 0 -0.000346714 1.81196e-18 1.14343e-16 0 
-7.83136e-17 5.38833e-17 0 0 0 -0.00160516 5.45829e-17 -1.09096e-16 0 
0 0 -0.000346714 0 0 -0.000346714 0 0 -0.00160516 
-9.51238e-07 -5.31976e-08 0.000961138 0 0 -0.00160516 0 0 -0.000346714 
-0.0311851 0.00284494 0.0146159 0.0357195 -0.0251358 -0.163018 0 0 -0.000346714 
0 0 -0.000346714 0 0 -0.000346714 0 0 -0.00160516 
0 0 -0.000346714 -0.00945864 0.0597196 -0.192886 -0.0426123 -0.0445588 0.124302 
0 0 -0.00160516 -0.000185919 -0.000199181 0.00158407 -9.39436e-17 -1.16491e-16 2.91954e-15 
0 0 -0.00160516 0 0 -0.00160516 0 0 -0.00160516 
0.00366669 0.00518789 0.00727774 -1.59901e-07 6.3929e-08 0.000190772 0 0 -0.000346714 
0 0 -0.000346714 0 0 -0.00160516 0 0 -0.00160516 
0 0 -0.000346714 -0.00585361 0.00846043 0.00326401 -0.00455733 0.0525493 0.0139464 
0 0 -0.00160516 -1.50856e-11 4.69014e-13 -4.38012e-10 0 0 -0.00160516 
0.000385066 0.000421052 -0.000463998 0 0 -0.00160516 0 0 -0.000346714 
0 0 -0.000346714 0 0 -0.00160516 0 0 -0.000346714 
0.0038528 0.00109322 0.0263794 0 0 -0.000346714 6.39251e-06 -1.42969e-05 0.0143016 
0 0 -0.000346714 0 0 -0.00160516 0 0 -0.000346714 
0 0 -0.00160516 0 0 -0.00160516 0 0 -0.000346714 
0 0 -0.00160516 0 0 -0.000346714 8.42275e-05 -7.73857e-05 0.0233222 
0 0 -0.000346714 0 0 -0.00160516 0 0 -0.00160516 
0 0 -0.00160516 0 0 -0.00160516 0 0 -0.000346714 
0 0 -0.00160516 -2.35935e-06 2.53595e-06 9.80802e-05 0.000409033 -0.000291625 -0.00158573 
0 0 -0.000346714 0 0 -0.000346714 -4.5938e-10 -1.10501e-09 4.52354e-05 
0 0 -0.00160516 6.92142e-06 -3.98929e-05 0.00566903 0 0 -0.000346714 
0 0 -0.00160516 0 0 -0.000346714 0 0 -0.00160516 
0 0 -0.000346714 -8.23133e-09 -7.8784e-09 -9.37484e-08 -2.02282e-17 2.20694e-16 0 
0 0 -0.000346714 0 0 -0.00160516 0 0 -0.00160516 
0 0 -0.000346714 0 0 -0.000346714 0 0 -0.00160516 
0 0 -0.00160516 0 0 -0.000346714 0 0 -0.000346714 
0 0 -0.00160516 0 0 -0.00160516 0 0 -0.000346714 
0 0 -0.000346714 0 0 -0.00160516 0 0 -0.000346714 
0 0 -0.000346714 0 0 -0.00160516 0 0 -0.000346714 
0 0 -0.00160516 0 0 -0.000346714 0 0 -0.00160516 
0 0 -0.000346714 0 0 -0.000346714 0 0 -0.000346714 
-0.00372207 0.0220316 0.14655 0.010024 -0.0530299 0.261495 0 0 -0.00160516 
0 0 -0.00160516 0 0 -0.000346714 0 0 -0.000346714 
0 0 -0.00160516 0 0 -0.000346714 0 0 -0.000346714 
0 0 -0.000346714 0 0 -0.00160516 0 0 -0.000346714 
0 0 -0.000346714 0 0 -0.000346714 0 0 -0.00160516 
0 0 -0.000346714 0 0 -0.000346714 0 0 -0.000346714 
0 0 -0.00160516 0 0 -0.000346714 0 0 -0.000346714 
0 0 -0.000346714 0 0 -0.00160516 0 0 -0.000346714 
0 0 -0.000346714 0 0 -0.000346714 0 0 -0.000346714 
0 0 -0.000346714 0 0 -0.00160516 0 0 -0.000346714 
0 0 -0.00160516 0 0 -0.000346714 0 0 -0.000346714 
0 0 -0.000346714 0 0 -0.000346714 0 0 -0.00160516 
0 0 -0.000346714 0 0 -0.000346714 0 0 -0.00160516 
0 0 -0.00160516 0 0 -0.00160516 0 0 -0.000346714 
0 0 -0.000346714 0 0 -0.000346714 0 0 -0.00160516 
0 0 -0.000346714 0 0 -0.000346714 0 0 0 
0 0 0 0 0 -0.00160516 0 0 0 
0 0 0 0 0 0 0 0 0 
0 0 0 0 0 0 0 0 0 
0 0 0 0 0 0 
radius 1 218 double
0.0015 0.0015 0.0015 0.0015 0.0015 0.0015 0.0015 0.0015 0.0015 
0.0015 0.0015 0.0015 0.0015 0.0015 0.0015 0.0015 0.0015 0.0015 
0.0015 0.0015 0.0015 0.0015 0.0015 0.0015 0.0015 0.0015 0.0015 
0.0015 0.0015 0.0015 0.0015 0.0015 0.0015 0.0015 0.0015 0.0015 
0.0015 0.0015 0.0015 0.0015 0.0015 0.0015 0.0015 0.0015 0.0015 
0.0015 0.0015 0.0015 0.0015 0.0015 0.0015 0.0015 0.0015 0.0015 
0.0015 0.0015 0.0015 0.0015 0.0015 0.0015 0.0015 0.0025 0.0025 
0.0015 0.0015 0.0025 0.0025 0.0025 0.0015 0.0025 0.0015 0.0015 
0.0015 0.0015 0.0025 0.0015 0.0025 0.0025 0.0025 0.0015 0.0025 
0.0025 0.0025 0.0025 0.0015 0.0025 0.0015 0.0015 0.0025 0.0025 
0.0015 0.0025 0.0015 0.0025 0.0025 0.0025 0.0025 0.0025 0.0015 
0.0015 0.0025 0.0015 0.0025 0.0015 0.0025 0.0015 0.0025 0.0015 
0.0025 0.0025 0.0015 0.0025 0.0015 0.0025 0.0015 0.0025 0.0025 
0.0025 0.0025 0.0015 0.0025 0.0025 0.0025 0.0015 0.0015 0.0025 
0.0025 0.0025 0.0015 0.0025 0.0015 0.0025 0.0015 0.0025 0.0025 
0.0015 0.0025 0.0025 0.0015 0.0015 0.0025 0.0025 0.0015 0.0015 
0.0025 0.0025 0.0015 0.0015 0.0025 0.0015 0.0015 0.0025 0.0015 
0.0025 0.0015 0.0025 0.0015 0.0015 0.0015 0.0025 0.0025 0.0025 
0.0025 0.0015 0.0015 0.0025 0.0015 0.0015 0.0015 0.0025 0.0015 
0.0015 0.0015 0.0025 0.0015 0.0015 0.0015 0.0025 0.0015 0.0015 
0.0015 0.0025 0.0015 0.0015 0.0015 0.0015 0.0015 0.0025 0.0015 
0.0025 0.0015 0.0015 0.0015 0.0015 0.0025 0.0015 0.0015 0.0025 
0.0025 0.0025 0.0015 0.0015 0.0015 0.0025 0.0015 0.0015 0.0015 
0.0025 0.0025 0.0015 0.0025 0.0015 0.0015 0.0015 0.0015 0.0015 
0.0015 0.0025 
omega 3 218 double
319.611 -117.794 22.6133 188.625 -77.4113 -25.4091 146.925 21.817 -150.364 
81.0029 -127.726 -39.9237 170.324 146.969 -13.3762 31.3408 -169.57 52.559 
40.3318 -126.367 -58.2179 27.6918 -129.639 23.0925 -87.5626 130.903 81.9006 
80.7812 33.068 -191.747 75.1078 102.005 143.695 14.5061 83.7608 -24.1797 
40.5564 101.515 77.6483 84.7812 29.3168 -97.8989 81.1201 -146.077 111.675 
112.07 -125.408 22.2681 28.3213 -41.1217 -17.2904 -8.18601 131.675 -101.651 
73.6292 -8.2273 36.0709 18.6506 4.11274 15.661 62.0928 -54.2989 11.4101 
10.0659 81.9195 264.67 78.9378 20.3587 -68.7946 57.3781 41.8796 -20.9201 
46.1411 77.0429 5.67371 103.054 -117.907 163.212 9.22807 3.88685 -95.6962 
17.0454 35.3905 41.7098 -44.9083 209.048 -31.6935 -2.43528 -11.3874 84.7185 
106.435 50.324 -10.4603 -117.209 -62.9391 -96.8994 -124.884 -123.403 -165.324 
-112.557 -69.9764 28.5092 -141.201 -9.32777 116.035 -45.7586 -12.7857 -67.317 
-16.168 -147.34 30.189 169.661 26.6668 -10.1007 16.9894 -2.65796 52.3424 
-41.7009 -19.4671 24.963 -82.9076 -32.6268 6.58147 -20.9558 -10.2406 28.4147 
3.05754 7.46355 -13.3126 -31.433 -4.47078 12.1962 -16.4795 49.3028 -69.8411 
-129.341 -58.3359 -142.366 57.8732 -43.543 -15.8971 -67.1474 -41.001 60.1759 
-329.649 287.093 -158.84 -73.7101 121.3 -97.9723 -93.2152 21.8224 18.9916 
-53.5838 12.4368 -105.799 -85.974 -420.125 182.236 -79.6258 4.49723 13.6943 
-55.2163 21.0627 79.2752 -113.721 57.5508 -49.1403 -4.72421 3.52058 -1.28052e-13 
-108.78 30.3903 20.6774 -133.924 39.4133 -6.66218 -372.821 -14.6119 1.62393e-13 
-252.149 278.093 14.541 84.4452 -21.1974 19.3632 37.6233 24.0154 16.0968 
213.437 -9.25371 -33.9438 -114.633 118.413 -5.30198 110.633 82.9541 -43.5072 
4.32964 -77.4872 -3.27791 18.3047 63.1195 10.1342 104.199 135.758 8.31505 
85.716 18.4259 12.7216 -95.2558 -78.7151 116.379 -159.631 136.295 -188.018 
57.0198 -131.544 -81.307 -100.254 -222.824 26.4165 -25.1199 53.5532 -6.28926 
-58.6802 135.017 134.725 24.6511 18.9647 -1.2144 19.5825 -182.963 52.4142 
40.5313 -6.93207 7.6406 -112.392 26.158 -0.052726 50.569 -83.5571 52.1171 
28.7875 -22.2104 -42.5629 -132.269 -136.234 -46.6075 -65.1257 49.3259 62.7364 
-23.4344 235.342 218.393 -10.9029 -27.2673 2.07416 -84.6267 196.478 160.978 
142.432 -43.1622 -80.5301 -110.537 -117.839 -37.6963 158.324 76.2225 -0.428592 
86.4091 415.124 -63.4999 -52.0434 -338.927 -6.74572 -271.169 112.083 184.43 
11.4696 -38.322 12.1111 3.19215 102.673 35.7184 116.056 -29.7032 -27.6716 
8.64929 -57.5966 22.9174 -94.2804 120.613 -13.8794 -97.3464 -87.211 -55.5895 
-12.7087 -71.5611 -45.2489 224.201 -72.1733 -23.4274 -27.7397 -258.659 -20.536 
-13.245 11.5353 -8.4234 138.332 93.4325 0.215823 -18.2673 -8.59335 -1.8747 
-3.44228 55.3724 35.1055 -67.9599 -24.771 30.1059 93.3427 22.5204 -26.6823 
-1.44885 -5.53635 14.8234 -5.88958 -9.57641 -23.7426 247.588 -15.1159 46.1848 
-20.5876 -1.93945 -26.3506 -3.86535 -70.1899 114.468 2.6962 -9.68504 121.2 
124.241 110.115 48.5522 -16.6979 -69.824 -2.28748 -1.16467 -9.19677 16.8693 
-39.3722 29.0448 -4.57819 -34.6579 6.11973 2.02716 -115.016 57.2427 11.638 
-37.2163 -44.4595 -47.2122 -50.9415 -47.394 44.4737 -29.0916 32.6071 -22.6355 
326.065 -131.472 -16.0698 -382.57 -49.5951 -199.088 -0.908142 0.382228 24.3615 
-18.7408 27.7746 25.3278 -43.8774 8.50842 26.7051 -25.8876 -15.0043 23.8798 
-23.4474 83.135 -58.722 0 0 0 136.009 -102.08 -18.9535 
77.6001 -103.568 -21.6328 -71.8686 75.0881 -18.8011 -127.23 29.8737 0.275332 
23.4383 -63.4336 18.6076 -117.671 -249.021 -48.6137 0 0 0 
18.9368 -195.695 -102.544 64.7082 -123.868 56.8153 -28.797 -27.1541 0.0660955 
170.779 -387.572 -3.40778 0 0 0 205.973 98.1561 -148.277 
256.13 -42.8905 -52.6122 -152.515 -412.663 -13.8845 -107.589 -277.249 5.14691e-14 
-109.871 -51.0195 3.44858 186.621 -126.907 16.3937 252.196 8.75057 24.722 
-137.441 121.224 -50.9294 176.691 53.3595 -42.8598 125.034 -174.098 24.1509 
-62.0071 -57.5888 -5.21987 -389.305 310.486 5.79828 27.3114 -127.827 2.39796 
0 0 0 -162.289 -108.132 -24.1333 78.3354 37.206 64.3187 
-5.97908 4.71896 -0.87436 -53.3208 -127.993 9.10433 -1.74551 -39.2239 -35.228 
-146.86 -5.99538 -45.8304 -150.959 -86.0474 188.916 -107.589 -277.249 5.14691e-14 
65.8561 95.9894 35.8046 57.9102 -85.6628 14.5829 0 0 0 
-14.1504 230.649 -27.9964 0 0 0 0 0 0 
0 0 0 0 0 0 0 0 0 
0 0 0 0 0 0 0 0 0 
0 0 0 0 0 0 0 0 0 
0 0 0 0 0 0 0 0 0 
0 0 0 0 0 0 0 0 0 
0 0 0 0 0 0 0 0 0 
0 0 0 0 0 0 0 0 0 
0 0 0 0 0 0 0 0 0 
0 0 0 0 0 0 0 0 0 
0 0 0 0 0 0 0 0 0 
0 0 0 0 0 0 0 0 0 
0 0 0 0 0 0 0 0 0 
0 0 0 0 0 0 0 0 0 
0 0 0 0 0 0 0 0 0 
0 0 0 0 0 0 0 0 0 
0 0 0 0 0 0 
