# vtk DataFile Version 4.0
Generated by LIGGGHTS
ASCII
DATASET POLYDATA
POINTS 166 float
-0.0107599 -0.0439974 0.0117151 -0.0285505 -0.0240854 0.0115017 -0.0125219 -0.0277204 0.0115374 
0.031266 -0.0231321 0.0122188 -0.00838819 -0.0177671 0.0114989 -0.0148375 -0.0155542 0.0114763 
0.00630655 -0.013584 0.0121674 -0.0271509 -0.0126586 0.0114985 -0.0184019 -0.011296 0.0114952 
0.0305085 -0.0104951 0.0114973 0.0270347 -0.0128677 0.0114913 0.00666582 -0.00627598 0.0115252 
0.0151513 -0.00871543 0.0114983 -0.00313738 -0.0056181 0.0136302 -0.00771266 -0.000655686 0.0123931 
-0.0184963 0.00305578 0.0117032 -0.0120933 0.00521924 0.0114978 -0.00845345 0.00888561 0.0115483 
0.00879179 0.00886665 0.0117411 0.0177909 0.00893302 0.0115291 -0.0153413 0.00986699 0.0114762 
-0.00645413 0.0117176 0.0115226 -0.00919837 0.0125986 0.012377 -0.014403 0.0196158 0.0114985 
-0.00861455 0.0232881 0.0114963 -0.00350861 0.0267464 0.0114983 -0.000382573 0.0276314 0.0114983 
0.022771 0.0401685 0.0114995 0.0346023 0.0465205 0.0114979 0.00917335 -0.0328942 0.0124961 
-0.0323562 -0.0240108 0.0138723 -0.0247421 -0.027247 0.0117658 -0.005429 -0.0266221 0.0115137 
-0.025022 -0.0216436 0.0116753 -0.0217145 -0.0206765 0.0144066 -0.0151688 -0.0223483 0.0132975 
-0.0104106 -0.0210494 0.0114995 0.0106142 -0.0204289 0.0155485 0.0135743 -0.0226272 0.0115115 
0.0254475 -0.0233647 0.0151701 -0.00764573 -0.0192611 0.015602 0.0131591 -0.018184 0.0116395 
-0.0184407 -0.0145379 0.0141265 -0.00522779 -0.0175772 0.0124558 0.0180635 -0.013578 0.0128988 
-0.0242012 -0.0111949 0.0117111 -0.0119787 -0.00550452 0.0165737 0.00107273 -0.0114966 0.0137405 
0.0272055 -0.00945556 0.0143508 -0.0207357 -0.00772241 0.0133209 -0.00364266 -0.00947192 0.012728 
0.00285907 -0.00721788 0.012274 -0.0334263 -0.00624074 0.0124961 -0.0115428 -0.00270778 0.0124901 
-0.00569222 -0.00110319 0.0173585 0.00989519 -0.0024224 0.012015 0.0314097 -0.00205526 0.0127624 
0.00102184 -0.000185357 0.012142 0.0134367 0.000487388 0.0127643 -0.0136105 0.00133317 0.0118898 
-0.00873362 0.00327439 0.0125165 -0.00324789 0.00337371 0.0125376 0.0204719 0.00514364 0.0126954 
-0.0150958 0.00613578 0.0140323 0.00521069 0.00706832 0.0125413 0.0136628 0.00666971 0.0125032 
0.0172928 0.00708864 0.0141589 0.0115469 0.011913 0.0124861 -0.0201866 0.0141011 0.0128532 
-0.00321669 0.0143892 0.0116203 0.0046747 0.0150485 0.0131573 0.0143454 0.0147861 0.0123054 
-0.0061364 0.020186 0.0142284 0.000100753 0.0187899 0.012776 0.00843896 0.0159885 0.0142332 
0.0106585 0.0171428 0.0116285 -0.0179388 0.0211905 0.0126219 -0.0139999 0.0231911 0.0138826 
0.00711202 0.0233062 0.0145225 0.0116958 0.0174016 0.0157346 -0.0520121 0.0247607 0.0116063 
0.0105358 0.023708 0.0124958 -0.0156137 0.0322662 0.0124961 0.00288911 0.028214 0.0134712 
0.0199423 0.0283257 0.0119267 0.00101614 -0.0377898 0.016373 -0.0109936 -0.0256607 0.0171115 
0.00564836 -0.0233494 0.0192968 -0.00409416 -0.0218604 0.0190032 -0.00395594 -0.0211766 0.0121511 
0.00479831 -0.0201556 0.0186219 0.0143491 -0.0175447 0.0157049 -0.0243531 -0.0130249 0.0192082 
0.00572759 -0.0171882 0.0153497 0.0101324 -0.0137813 0.0118063 -0.00699549 -0.011331 0.0161109 
0.0105462 -0.00961716 0.0120776 -0.0135693 -0.000698919 0.0169054 -0.00439945 -0.00817412 0.0175519 
0.0085533 -0.00763699 0.0160369 -0.0236825 -0.00352041 0.0176228 -0.0149924 -0.000644602 0.01374 
0.0159383 0.00462328 0.0163237 0.019438 -0.00161826 0.0113993 -0.00219303 0.010221 0.0125053 
0.0244 0.00852232 0.017162 -0.0274509 0.0134132 0.0159943 -0.0134619 0.0117657 0.0144204 
-0.0100919 0.0138505 0.0152368 0.0150952 0.01781 0.015697 0.00688096 0.0221886 0.0172991 
-0.00159259 0.0243437 0.0162629 -0.0168254 -0.0194509 0.0176139 -0.00774648 0.00354874 0.016473 
0.0199102 0.0128313 0.0188407 0.0186646 -0.000240294 0.0149592 0.0102836 0.00774242 0.0146691 
-0.00622371 0.00906499 0.0152024 0.0120535 0.0101814 0.0161134 0.00139985 0.0150996 0.0180382 
-0.0237598 0.0205168 0.0123521 -0.0049448 0.0238183 0.0219162 -0.00222406 -0.0159626 0.0147871 
-0.000103645 -0.00472293 0.0145017 0.00693152 0.00277307 0.0150509 -0.0211036 0.00870499 0.0194602 
0.0245414 0.00786508 0.020601 -0.00872258 0.0175547 0.0198754 -0.0100804 -0.00591709 0.0244875 
0.0192488 -0.00825137 0.0216227 0.00350997 0.0168533 0.0223726 0.0247988 0.0225695 0.0218427 
0.00294519 0.0239456 0.0242556 -0.00871618 0.00269621 0.0253928 -0.0238308 -0.0192706 0.0314565 
0.0247132 -0.0163637 0.0313771 0.0147052 -0.00897455 0.0306511 -0.00485684 -0.00202261 0.0320503 
-0.00133512 -0.00254257 0.0309101 0.00527142 -0.00920524 0.0326264 -0.0209863 -0.00774384 0.0350687 
-0.014558 -0.00250175 0.0361427 -0.0210873 0.00110593 0.0327928 0.0154587 -0.000962964 0.0328773 
0.000514489 0.00919858 0.0361543 0.00922741 -0.0232366 0.0392816 0.00470322 0.00420686 0.0365052 
0.0236058 0.0102769 0.037181 0.00645901 -0.00301919 0.0420943 -0.000171395 0.00549175 0.0406229 
0.0104618 0.0112638 0.0408685 -0.011803 0.0179561 0.0421863 0.0116954 0.0190136 0.0427158 
0.0219622 0.0246101 0.0436074 -0.0137411 -0.0227854 0.0465876 -0.0242674 -0.0109123 0.0466188 
0.0196693 0.0138823 0.0472234 0.0152098 -0.0150464 0.0492516 0.00818728 -0.00884571 0.0510589 
-0.00981904 -6.82087e-05 0.0484772 0.0166201 0.00910434 0.0495354 -0.0149684 -0.0194016 0.0535532 
0.00737247 -0.0140816 0.0530724 -0.0072433 -0.00165617 0.0544017 0.00931464 -0.000787808 0.053366 
0.0149168 0.018392 0.051856 
VERTICES 166 332
1 0 
1 1 
1 2 
1 3 
1 4 
1 5 
1 6 
1 7 
1 8 
1 9 
1 10 
1 11 
1 12 
1 13 
1 14 
1 15 
1 16 
1 17 
1 18 
1 19 
1 20 
1 21 
1 22 
1 23 
1 24 
1 25 
1 26 
1 27 
1 28 
1 29 
1 30 
1 31 
1 32 
1 33 
1 34 
1 35 
1 36 
1 37 
1 38 
1 39 
1 40 
1 41 
1 42 
1 43 
1 44 
1 45 
1 46 
1 47 
1 48 
1 49 
1 50 
1 51 
1 52 
1 53 
1 54 
1 55 
1 56 
1 57 
1 58 
1 59 
1 60 
1 61 
1 62 
1 63 
1 64 
1 65 
1 66 
1 67 
1 68 
1 69 
1 70 
1 71 
1 72 
1 73 
1 74 
1 75 
1 76 
1 77 
1 78 
1 79 
1 80 
1 81 
1 82 
1 83 
1 84 
1 85 
1 86 
1 87 
1 88 
1 89 
1 90 
1 91 
1 92 
1 93 
1 94 
1 95 
1 96 
1 97 
1 98 
1 99 
1 100 
1 101 
1 102 
1 103 
1 104 
1 105 
1 106 
1 107 
1 108 
1 109 
1 110 
1 111 
1 112 
1 113 
1 114 
1 115 
1 116 
1 117 
1 118 
1 119 
1 120 
1 121 
1 122 
1 123 
1 124 
1 125 
1 126 
1 127 
1 128 
1 129 
1 130 
1 131 
1 132 
1 133 
1 134 
1 135 
1 136 
1 137 
1 138 
1 139 
1 140 
1 141 
1 142 
1 143 
1 144 
1 145 
1 146 
1 147 
1 148 
1 149 
1 150 
1 151 
1 152 
1 153 
1 154 
1 155 
1 156 
1 157 
1 158 
1 159 
1 160 
1 161 
1 162 
1 163 
1 164 
1 165 

POINT_DATA 166
FIELD FieldData 7
id 1 166 int
48 47 82 12 32 96 8 45 74 
23 11 75 10 25 102 33 61 88 
70 49 21 99 38 51 7 26 24 
37 46 2 16 71 59 107 83 92 
18 110 19 52 6 76 4 85 97 
9 91 15 3 67 42 63 40 41 
106 101 79 72 5 114 55 81 93 
69 27 17 87 53 66 20 44 22 
104 28 98 65 1 13 95 100 57 
31 56 35 39 30 90 77 73 89 
50 29 84 105 112 36 108 86 14 
68 94 64 111 109 103 62 43 80 
58 34 113 78 127 60 54 115 121 
116 120 118 117 124 119 126 123 122 
125 138 131 139 128 134 135 133 137 
132 136 146 140 152 153 150 130 129 
148 142 145 144 141 151 143 147 149 
159 160 157 163 164 154 162 165 155 
161 158 156 166 
type 1 166 int
1 1 1 1 1 1 1 1 1 
1 1 1 1 1 1 1 1 1 
1 1 1 1 1 1 1 1 1 
1 1 1 1 1 1 1 1 1 
1 1 1 1 1 1 1 1 1 
1 1 1 1 1 1 1 1 1 
1 1 1 1 1 1 1 1 1 
1 1 1 1 1 1 1 1 1 
1 1 1 1 1 1 1 1 1 
1 1 1 1 1 1 1 1 1 
1 1 1 1 1 1 1 1 1 
1 1 1 1 1 1 1 1 1 
1 1 1 1 1 1 1 1 1 
1 1 1 1 1 1 1 1 1 
1 1 1 1 1 1 1 1 1 
1 1 1 1 1 1 1 1 1 
1 1 1 1 1 1 1 1 1 
1 1 1 1 1 1 1 1 1 
1 1 1 1 
i 3 166 int
0 0 0 0 0 0 0 0 0 
0 0 0 0 0 0 0 0 0 
0 0 0 0 0 0 0 0 0 
0 0 0 0 0 0 0 0 0 
0 0 0 0 0 0 0 0 0 
0 0 0 0 0 0 0 0 0 
0 0 0 0 0 0 0 0 0 
0 0 0 0 0 0 0 0 0 
0 0 0 0 0 0 0 0 0 
0 0 0 0 0 0 0 0 0 
0 0 0 0 0 0 0 0 0 
0 0 0 0 0 0 0 0 0 
0 0 0 0 0 0 0 0 0 
0 0 0 0 0 0 0 0 0 
0 0 0 0 0 0 0 0 0 
0 0 0 0 0 0 0 0 0 
0 0 0 0 0 0 0 0 0 
0 0 0 0 0 0 0 0 0 
0 0 0 0 0 0 0 0 0 
0 0 0 0 0 0 0 0 0 
0 0 0 0 0 0 0 0 0 
0 0 0 0 0 0 0 0 0 
0 0 0 0 0 0 0 0 0 
0 0 0 0 0 0 0 0 0 
0 0 0 0 0 0 0 0 0 
0 0 0 0 0 0 0 0 0 
0 0 0 0 0 0 0 0 0 
0 0 0 0 0 0 0 0 0 
0 0 0 0 0 0 0 0 0 
0 0 0 0 0 0 0 0 0 
0 0 0 0 0 0 0 0 0 
0 0 0 0 0 0 0 0 0 
0 0 0 0 0 0 0 0 0 
0 0 0 0 0 0 0 0 0 
0 0 0 0 0 0 0 0 0 
0 0 0 0 0 0 0 0 0 
0 0 0 0 0 0 0 0 0 
0 0 0 0 0 0 0 0 0 
0 0 0 0 0 0 0 0 0 
0 0 0 0 0 0 0 0 0 
0 0 0 0 0 0 0 0 0 
0 0 0 0 0 0 0 0 0 
0 0 0 0 0 0 0 0 0 
0 0 0 0 0 0 0 0 0 
0 0 0 0 0 0 0 0 0 
0 0 0 0 0 0 0 0 0 
0 0 0 0 0 0 0 0 0 
0 0 0 0 0 0 0 0 0 
0 0 0 0 0 0 0 0 0 
0 0 0 0 0 0 0 0 0 
0 0 0 0 0 0 0 0 0 
0 0 0 0 0 0 0 0 0 
0 0 0 0 0 0 0 0 0 
0 0 0 0 0 0 0 0 0 
0 0 0 0 0 0 0 0 0 
0 0 0 
v 3 166 double
-0.17654 -0.478997 -0.0140372 -0.171906 -0.056024 0.00124008 -0.115831 -0.282888 -0.0340723 
0.218619 -0.255324 -0.0245359 0.238177 0.0305812 0.00245624 -0.0953836 0.0167075 -0.00507506 
0 0 0.00489218 -0.218999 -0.121615 0.000202412 -0.0974761 -0.0699897 -0.00303303 
0.115491 -0.0691661 -0.000618187 0.0627618 -0.0859267 -0.00176979 -0.0709758 -0.0512504 -0.0145766 
-0.0599837 -0.146623 -5.01866e-07 -0.00633921 -0.11675 0.245937 -0.0644554 -0.0368557 0.067436 
-0.00645507 -0.175235 -0.021454 -0.0482279 -0.0825725 0.00089569 -0.0460327 0.0307648 -0.0151982 
0.0428207 0.0962774 0.120697 -0.182948 0.184655 -0.012661 -0.0170074 0.0716865 -0.00749522 
0.0468334 0.03104 0.000995555 -0.0926538 0.0172277 -0.300158 0.00842059 -0.0132046 -0.00162156 
0.0968365 0.0709255 -0.0302307 0.00403999 -0.00432952 -6.92355e-15 -0.0806861 0.0272716 1.00544e-06 
-0.0219076 0.558972 0.000322618 0.416887 0.377995 -0.00144501 0.0599918 -0.0939849 9.55953e-08 
-0.231665 -0.011128 0.0201582 -0.0831905 -0.109457 -0.285842 0.0161133 -0.235175 -0.127751 
-0.353695 -0.1171 -0.130224 -0.0562705 -0.0458514 -0.0359871 0.183372 -0.0965412 -0.120078 
0.125801 -0.0218527 0.0553596 0 0 0.276457 0 0 -0.394637 
-0.0714047 -0.25835 -0.000674709 0.0535071 -0.2173 0.118491 -0.0802446 -0.154274 0.119513 
-0.110998 -0.149676 -0.0897078 -0.298907 -0.196212 -0.667148 -0.221204 0.147917 0.143918 
-0.151781 -0.176983 0.0636668 -0.101847 0.371835 0.106048 -0.0354126 0.0257094 0.153822 
-0.000429838 -0.0168634 -0.0966749 -0.0475436 -0.150345 0.0397873 -0.0940922 -0.0783774 -0.0338072 
-0.188671 -0.0630178 -0.149057 -0.20873 -0.126324 9.34389e-05 -0.0732334 -0.00749689 -0.0483574 
-0.180156 0.0607055 0.233033 -0.100133 0.0462976 -0.288586 0.256516 -0.0080758 -0.0219169 
0.0997157 0.0123113 0.079901 -0.0722266 0.109305 -0.00252953 -0.204048 -0.0510139 -0.349673 
0.00854044 0.0015205 -0.0198176 0.0985365 0.0327756 0.0914645 0.0102457 0.183471 0.110375 
-0.0167526 0.0998075 0.00912211 -0.0255966 0.0372042 0.0120005 0.0231557 0.0562463 0.0169859 
-0.0918493 0.207098 0.0446401 0.0410817 0.0363413 0.0727808 -0.118811 0.126994 0.0885235 
-0.152048 -0.0417178 0.0188747 0.0316575 -0.0016405 0.201077 0.072764 0.0388381 -0.317147 
0.326826 0.448919 -0.0639442 -0.147777 0.101565 -0.252455 0.163608 0.0216736 -0.0722302 
0.148045 -0.0484133 0.0587543 0.102862 0.0119053 0.094381 0.0265369 0.113152 -0.10932 
0.011293 0.0699828 -0.0610517 -0.171483 -0.192628 0.10857 -0.629684 0.128864 0.0172446 
0.0461142 0.0861607 0.000370182 0.0746261 0.317827 1.81826e-08 -0.0339071 0.154912 0.0179208 
0.00552075 0.0074082 0.0947323 -0.0396564 -0.247304 -0.188414 -0.120644 -0.119359 0.0640296 
0 0 0.0556162 0.00577258 -0.136954 0.0652483 -0.0685387 -0.58271 -0.915475 
0.154271 -0.420342 -0.0422097 0 0 -0.30121 0 0 0.0699723 
0.325963 -0.378576 -0.141262 -0.185802 -0.0879375 0.173649 0 0 -0.256226 
-0.0361417 0.281894 0.0546665 -0.133199 0.479229 -0.04825 -0.147547 -0.0195049 -0.024579 
0.06148 -0.228166 -0.0567001 -0.261877 -0.0237767 0.0834827 -0.129198 -0.168144 -0.367576 
0.21377 0.159183 0.150981 -0.0317928 -0.0890341 0.0115489 0.211801 0.227538 0.0535275 
0.0763909 0.0810241 -0.845741 -0.117325 0.119993 -0.078628 0.15547 0.237651 -0.240011 
0.152706 0.453408 -0.208349 0.0180644 -0.0132421 -0.244137 0.080216 0.082679 -0.0525369 
-0.00887081 0.0651563 -0.229172 0.173526 0.128125 0.0262012 -0.0730121 -0.323999 -0.496581 
0.0900309 0.0274301 -0.203633 -0.212029 -0.168355 -0.0437573 0.05745 -0.0710212 0.344472 
-0.156559 -0.00286202 -0.534078 -0.30219 -0.35662 0.0640108 -0.401172 0.0135481 0.32587 
-0.33033 -0.0382329 -0.31089 -0.368007 -0.00251134 0.0848162 0.113725 0.103402 -0.995164 
0 0 -1.3175 0 0 -1.31338 0 0 -1.28003 
0.0436641 -0.0810875 -0.508127 0 0 -1.27679 0 0 -1.24088 
0 0 -1.26335 0 0 -1.25746 0 0 -1.26158 
0 0 -1.24275 0 0 -1.23372 0 0 -1.18448 
0 0 -1.18516 0 0 -1.19115 0 0 -1.17957 
0 0 -1.18899 0 0 -1.17477 0 0 -1.15416 
0 0 -1.14504 0 0 -1.17339 0 0 -1.17271 
0 0 -1.14494 0 0 -1.11787 0 0 -1.1419 
0 0 -1.13611 0 0 -1.09285 0 0 -1.106 
0 0 -1.10384 0 0 -1.09207 0 0 -1.08726 
0 0 -1.07922 0 0 -1.05175 0 0 -1.05145 
0 0 -1.04576 0 0 -1.02663 0 0 -1.00917 
0 0 -1.03399 0 0 -1.02389 -0 -0 -1 
-0 -0 -1 -0 -0 -1 -0 -0 -1 
0 0 -1.00142 
f 3 166 double
0 0 -0.000346714 0 0 -0.000346714 0 0 -0.000346714 
0 0 -0.000346714 3.02162e-06 3.87448e-07 -0.000311836 -0.0084641 0.00507021 0.0193863 
0 0 -0.000346714 -2.69684e-07 -1.49758e-07 -5.69707e-05 -0.000408552 0.000923947 0.00167377 
-1.54762e-06 7.98275e-07 0.000419214 -4.23752e-06 5.24573e-06 0.00401965 0 0 -0.000346714 
3.15805e-10 7.7195e-10 8.93487e-07 -0.000147464 0.000691737 0.000108673 0 0 -0.000346714 
0 0 -0.000346714 0.000192819 -0.000135041 0.000124094 0 0 -0.000346714 
0 0 -0.000346714 0 0 -0.000346714 0.000262636 0.00186114 0.00152535 
0 0 -0.000346714 0 0 -0.000346714 -8.08767e-08 1.30877e-07 7.56546e-05 
-5.64595e-07 -2.15911e-06 0.00335128 7.49443e-19 -7.23765e-19 0 -4.25178e-10 1.43709e-10 2.27941e-08 
-1.0347e-07 2.64003e-06 -0.000305623 -4.39465e-06 -3.98361e-06 0.000256909 8.99935e-11 -1.40986e-10 -3.04543e-08 
0 0 -0.00160516 0 0 -0.000346714 0 0 -0.000346714 
0 0 -0.000346714 0 0 -0.000346714 0 0 -0.00160516 
0.000146424 -5.65735e-05 -0.00306437 0 0 -0.000346714 0 0 -0.000346714 
0 0 -0.000346714 0 0 -0.000346714 0 0 -0.000346714 
0 0 -0.00160516 0 0 -0.000346714 0 0 -0.000346714 
0 0 -0.000346714 -0.0148238 -0.00849285 0.0442472 0 0 -0.00160516 
0 0 -0.00160516 0 0 -0.00160516 0.000147464 -0.000691737 -0.00206054 
0 0 -0.000346714 -2.96754e-07 -1.79596e-07 -1.58451e-05 0.0170408 -0.00666993 -0.0284661 
0 0 -0.00160516 0 0 -0.000346714 0 0 -0.00160516 
0 0 -0.000346714 0 0 -0.00160516 0 0 -0.000346714 
0 0 -0.00160516 0 0 -0.00160516 0 0 -0.00160516 
0 0 -0.00160516 0 0 -0.00160516 0 0 -0.00160516 
0 0 -0.000346714 -0.000553058 0.000716597 -0.0116951 0 0 -0.00160516 
0 0 -0.000346714 0 0 -0.00160516 0 0 -0.000346714 
0 0 -0.00160516 0 0 -0.00160516 0 0 -0.000346714 
0 0 -0.000346714 0 0 -0.00160516 0 0 -0.000346714 
-8.81131e-05 2.85128e-05 -0.000238357 0 0 -0.000346714 0 0 -0.000346714 
2.79331e-05 -3.79834e-05 2.57396e-05 1.85691e-11 7.90844e-11 6.55569e-09 0 0 -0.000346714 
0 0 -0.000346714 0 0 -0.00160516 0 0 -0.000346714 
0 0 -0.000346714 0 0 -0.000346714 0 0 -0.000346714 
0 0 -0.000346714 0 0 -0.00160516 0 0 -0.000346714 
0 0 -0.00160516 0 0 -0.000346714 0 0 -0.000346714 
0 0 -0.000346714 0 0 -0.000346714 0 0 -0.00160516 
0 0 -0.00160516 0 0 -0.00160516 0 0 -0.000346714 
0 0 -0.000346714 0.00394206 -0.00798946 0.0184519 0.00124357 0.000441205 -0.00381956 
0 0 -0.000346714 0 0 -0.00160516 0.00426948 0.00291009 0.0162968 
0 0 -0.000346714 0 0 -0.000346714 0 0 -0.000346714 
0 0 -0.00160516 0 0 -0.000346714 0 0 -0.000346714 
0 0 -0.00160516 -0.0171933 0.031029 0.141393 0 0 -0.000346714 
-0.00124357 -0.000441205 0.000609243 0 0 -0.000346714 0 0 -0.00160516 
-0.00934406 -0.00108149 0.543356 0 0 -0.000346714 0 0 -0.00160516 
0 0 -0.000346714 0 0 -0.000346714 0 0 -0.000346714 
0 0 -0.000346714 0 0 -0.000346714 0 0 -0.00160516 
0 0 -0.000346714 0 0 -0.00160516 0 0 -0.000346714 
0 0 -0.000346714 0 0 -0.000346714 0 0 -0.000346714 
0 0 -0.00160516 0 0 -0.000346714 0 0 -0.000346714 
0 0 -0.000346714 0 0 -0.000346714 0 0 -0.000346714 
0 0 -0.000346714 0 0 -0.00160516 0 0 -0.00160516 
0 0 -0.000346714 0 0 -0.00160516 0 0 -0.00160516 
0 0 -0.00160516 0 0 -0.00160516 0 0 -0.000346714 
0 0 -0.00160516 0 0 -0.000346714 0 0 -0.000346714 
0 0 -0.000346714 0 0 -0.000346714 0 0 -0.00160516 
0 0 -0.000346714 0 0 -0.000346714 0 0 -0.00160516 
0 0 -0.000346714 0 0 -0.000346714 0 0 0 
0 0 0 0 0 0 0 0 0 
0 0 -0.000346714 
radius 1 166 double
0.0015 0.0015 0.0015 0.0015 0.0015 0.0015 0.0015 0.0015 0.0015 
0.0015 0.0015 0.0015 0.0015 0.0015 0.0015 0.0015 0.0015 0.0015 
0.0015 0.0015 0.0015 0.0015 0.0015 0.0015 0.0015 0.0015 0.0015 
0.0015 0.0015 0.0025 0.0025 0.0015 0.0015 0.0015 0.0015 0.0025 
0.0015 0.0015 0.0015 0.0015 0.0015 0.0015 0.0025 0.0015 0.0015 
0.0015 0.0025 0.0025 0.0025 0.0025 0.0025 0.0015 0.0025 0.0025 
0.0025 0.0015 0.0025 0.0015 0.0025 0.0015 0.0025 0.0025 0.0025 
0.0025 0.0025 0.0025 0.0015 0.0025 0.0025 0.0015 0.0025 0.0015 
0.0025 0.0025 0.0015 0.0015 0.0025 0.0015 0.0015 0.0015 0.0015 
0.0025 0.0025 0.0015 0.0015 0.0025 0.0015 0.0015 0.0015 0.0015 
0.0015 0.0025 0.0015 0.0025 0.0015 0.0015 0.0015 0.0015 0.0025 
0.0025 0.0025 0.0015 0.0015 0.0015 0.0025 0.0015 0.0025 0.0025 
0.0015 0.0015 0.0015 0.0025 0.0015 0.0015 0.0025 0.0025 0.0015 
0.0025 0.0015 0.0025 0.0025 0.0015 0.0025 0.0015 0.0015 0.0015 
0.0015 0.0015 0.0025 0.0015 0.0025 0.0015 0.0015 0.0015 0.0015 
0.0025 0.0015 0.0015 0.0015 0.0015 0.0015 0.0015 0.0025 0.0025 
0.0015 0.0025 0.0025 0.0025 0.0025 0.0015 0.0025 0.0015 0.0015 
0.0015 0.0015 0.0025 0.0015 0.0015 0.0025 0.0015 0.0015 0.0025 
0.0015 0.0025 0.0025 0.0015 
omega 3 166 double
319.868 -117.885 22.6133 37.337 -114.301 -78.3141 188.447 -77.7804 -25.4091 
170.36 149.816 -13.3762 -20.395 158.843 102.177 -23.1287 -83.8674 -32.2206 
0 0 0 81.1161 -146.07 111.675 18.1576 -77.7165 20.5178 
46.1531 77.0593 5.67371 57.5326 41.9175 -20.9201 34.143 -47.3417 36.5878 
97.8032 -40.0113 -57.0145 111.337 40.791 -90.5418 -46.7764 -58.6684 -83.6891 
119.957 -17.3876 183.954 60.5882 -24.3252 66.6267 -41.8838 1.39185 134.194 
-15.7411 -87.4229 10.9131 31.1206 -33.2387 -106.328 -44.9892 -12.8783 41.7937 
-28.1976 10.9199 70.1407 -134.759 -186.664 2.40566 8.80697 5.6163 -91.2632 
-47.3197 64.6183 37.6336 2.88795 2.69482 -3.55473e-13 -18.1912 -53.8205 -21.0902 
-372.736 -14.6085 1.62393e-13 -252.182 278.129 14.541 37.6233 24.0154 16.0968 
4.01275 -39.4274 -3.27791 -71.9651 -452.404 52.559 122.152 49.393 -150.364 
-5.17974 3.61241 2.9963 162.672 168.84 206.929 -32.4587 35.8683 10.3278 
14.3302 83.3798 -24.1797 0 0 0 0 0 0 
-143.958 -324.265 -39.9237 138.335 169.946 -24.3057 101.764 -54.691 -60.0439 
180.716 109.117 3.43521 -11.8855 301.567 99.0926 -98.5877 -147.434 2.10338e-13 
117.837 -100.895 34.1541 -279.968 -103.296 2.56194 -22.9749 -29.9895 14.314 
-54.7992 -94.6384 2.07416 94.8177 -39.853 -52.6809 40.9093 -16.837 16.2219 
-46.0082 -5.80247 -40.3841 50.5691 -83.5572 52.1171 20.7947 -27.0661 77.5177 
-229.567 -128.948 -46.2072 71.3541 1.11096 165.788 3.09075 102.642 35.7184 
-8.13917 65.0807 -43.0434 -44.1066 -28.963 37.6406 21.0544 -193.74 -11.4364 
7.24367 -18.6807 16.8228 -13.4697 39.5422 -31.9689 -88.1417 -21.6022 39.0223 
-157.643 31.254 -43.4497 -10.9082 -13.3449 14.5046 -22.5722 9.16654 34.6875 
82.4192 -0.200374 -26.0491 -15.062 16.1722 -42.8038 -51.1769 -46.954 44.4737 
27.4012 -100.948 40.6141 -6.07457 45.2021 -27.0764 -62.0751 57.1794 42.0857 
-325.283 133.5 -6.18107 16.4632 36.4847 42.823 -217.728 8.75108 -23.1718 
32.5749 98.6646 102.532 -4.69651 40.5776 -8.26249e-14 -89.8874 -28.3315 13.6943 
303.002 -44.674 -138.069 135.709 -70.0331 17.0279 -86.0167 -420.382 182.236 
-34.499 18.4895 0.187099 -127.23 29.8737 0.275332 -77.8135 2.24723 104.15 
-4.18778 3.12082 -1.28052e-13 48.7822 -34.0039 19.3632 -114.633 118.413 -5.30198 
0 0 0 57.5744 -29.2451 -14.0131 -212.835 78.9796 -33.9438 
-345.133 -185.674 -198.898 0 0 0 0 0 0 
209.761 173.034 -25.4089 59.8235 -123.993 -87.9178 0 0 0 
358.806 17.9271 -27.8739 212.276 46.9408 7.41391 -106.74 -70.9595 -50.2468 
71.9436 82.4947 -38.016 -110.537 -117.839 -37.6963 -110.636 45.7267 262.484 
-137.441 121.224 -50.9294 54.2795 -26.3254 6.93115 -88.1268 73.9629 55.7247 
42.3659 -59.7089 32.2761 -52.0909 -51.3242 -49.6101 61.3631 85.0345 43.6216 
20.2572 -72.8387 89.1708 -4.73907 34.6316 17.0279 -263.802 173.467 -109.136 
-18.6568 -47.6646 12.6336 -116.295 47.2931 92.6197 -396.042 114.31 -20.9469 
16.019 -52.5777 -1.97587e-15 -5.99619 -57.5185 20.8229 188.735 287.772 4.4701 
79.7929 -150.91 38.5843 266.993 -267.313 15.8561 8.16096 -187.434 3.33863 
14.7693 -127.606 -8.26249e-14 57.9102 -85.6628 14.5829 -61.3029 43.2125 15.5065 
0 0 0 0 0 0 0 0 0 
34.16 16.9713 -0.30378 0 0 0 0 0 0 
0 0 0 0 0 0 0 0 0 
0 0 0 0 0 0 0 0 0 
0 0 0 0 0 0 0 0 0 
0 0 0 0 0 0 0 0 0 
0 0 0 0 0 0 0 0 0 
0 0 0 0 0 0 0 0 0 
0 0 0 0 0 0 0 0 0 
0 0 0 0 0 0 0 0 0 
0 0 0 0 0 0 0 0 0 
0 0 0 0 0 0 0 0 0 
0 0 0 0 0 0 0 0 0 
0 0 0 0 0 0 0 0 0 
0 0 0 
