# vtk DataFile Version 4.0
Generated by LIGGGHTS
ASCII
DATASET POLYDATA
POINTS 934 float
-0.0294213 -0.166408 -0.454552 -0.0889441 -0.212502 -0.44533 0.0761988 -0.152334 -0.422329 
-0.076409 -0.183315 -0.407854 0.0782031 -0.172144 -0.381826 0.0343366 -0.17451 -0.339251 
0.0868147 -0.162761 -0.338941 -0.0053115 -0.120117 -0.296606 0.0451651 -0.170216 -0.251469 
0.0227596 -0.16969 -0.250362 0.0786438 -0.185224 -0.229464 -0.0381537 -0.157512 -0.232066 
0.022026 -0.157514 -0.219132 0.0753621 -0.149964 -0.191866 0.0449374 -0.127967 -0.0839913 
-0.0621532 -0.124689 -0.0740863 -0.0158034 -0.143671 -0.0476228 0.0029139 -0.130866 -0.0426461 
0.0873735 -0.127758 -0.0446858 -0.0251931 -0.121588 -0.0432838 0.0496917 -0.118822 -0.0361062 
-0.0957612 -0.117445 -0.031893 0.0121405 -0.115831 -0.0267706 -0.0114319 -0.118945 -0.02459 
-0.0318364 -0.114818 -0.0155062 0.0478918 -0.111903 -0.0109038 0.094566 -0.118966 -0.00626432 
-0.0278149 -0.110072 -0.00761965 0.0865126 -0.111817 -0.00959864 -0.0941114 -0.108504 -0.00136842 
-0.0603213 -0.108538 -0.00174799 0.0159962 -0.108082 -8.71966e-05 0.0553865 -0.107751 -0.000723121 
-0.0652588 -0.106343 0.00552988 -0.0842178 -0.102293 0.010308 -0.0172187 -0.103475 0.00963806 
-0.00713416 -0.105048 0.00935178 -0.0355744 -0.0992129 0.0114983 0.010408 -0.0993143 0.0114983 
0.0314861 -0.0982573 0.0114983 0.0360178 -0.0986187 0.0114983 -0.0940875 -0.0956696 0.0114983 
-0.0225337 -0.0959348 0.0114983 0.0156678 -0.0913407 0.0114983 0.0315369 -0.0918735 0.0114983 
0.0725552 -0.0920518 0.0114983 0.0773625 -0.0926379 0.0114983 0.0958411 -0.0927976 0.0114983 
-0.0761344 -0.0890834 0.0114983 -0.0219018 -0.0887543 0.0114983 0.0331831 -0.0871447 0.0114983 
0.0955764 -0.0871229 0.0114983 -0.0822755 -0.0841205 0.0114983 -0.0731701 -0.084499 0.0114983 
-0.0187072 -0.0859494 0.0114983 -0.0319576 -0.080247 0.0114983 -0.024908 -0.0827955 0.0114983 
0.0625191 -0.0822506 0.0114983 -0.0778683 -0.0787468 0.0114983 -0.00100899 -0.0769151 0.0114983 
-0.0953622 -0.0741856 0.0114989 0.0043406 -0.074567 0.0114983 0.0365056 -0.0748188 0.0114983 
-0.0545455 -0.0711229 0.0114983 -0.0229779 -0.0723291 0.0114983 -0.0185787 -0.0721122 0.0114983 
0.00774059 -0.0728381 0.0114983 0.0214667 -0.0729996 0.0114983 0.0734565 -0.0699005 0.0114983 
-0.0958428 -0.068433 0.0114983 -0.059519 -0.0670923 0.0114983 -0.0383681 -0.0670692 0.0114983 
-0.0247279 -0.0687244 0.0114983 -0.022043 -0.0655606 0.0114983 -0.093082 -0.0630338 0.0114983 
-0.0612164 -0.0628601 0.0114983 -0.049248 -0.0633589 0.0114983 -0.0434172 -0.0644935 0.0114983 
-0.0334694 -0.0622655 0.0114983 0.0110518 -0.0649903 0.0114983 0.0145125 -0.0653725 0.0114983 
0.016133 -0.0627038 0.0114983 0.0294952 -0.0627348 0.0114983 -0.0959867 -0.0594345 0.0114983 
-0.0929708 -0.059713 0.0114983 -0.0503203 -0.060472 0.0114983 0.00935594 -0.0618667 0.0114983 
-0.0918909 -0.0565026 0.0114983 -0.088374 -0.0582671 0.0114983 0.0193807 -0.0568191 0.0114983 
0.0518739 -0.0577805 0.0114983 -0.0549302 -0.0542481 0.0114983 -0.035097 -0.0517281 0.0114983 
-0.0324814 -0.0532161 0.0114983 -0.0291792 -0.0536517 0.0114984 0.00401197 -0.0545836 0.0114983 
0.0124195 -0.0537139 0.0114983 0.0261152 -0.052004 0.0114983 0.0954117 -0.051442 0.0114983 
-0.0381075 -0.0511723 0.0114983 -0.0293076 -0.0505566 0.0116198 -0.00776096 -0.0497012 0.0114983 
-0.00466609 -0.0510974 0.0114983 0.0072952 -0.0502447 0.0114983 0.0190132 -0.0484866 0.0114983 
0.0421222 -0.0508651 0.0114983 -0.0381499 -0.0480243 0.0114983 -0.0310699 -0.0449423 0.0114973 
-0.0214005 -0.0456721 0.0114983 -0.0178389 -0.0473969 0.0114983 0.0135047 -0.0454593 0.0115183 
0.0298858 -0.0452139 0.0114983 -0.0771395 -0.0435661 0.0114983 -0.0562761 -0.0410377 0.0114956 
-0.0540041 -0.0439218 0.0114983 -0.0314409 -0.0419381 0.0114931 0.0133585 -0.041355 0.0114983 
-0.0312174 -0.0389596 0.0115053 -0.00933043 -0.0401682 0.0114985 0.00447945 -0.0380555 0.0114972 
0.011684 -0.0387049 0.0114983 0.0336233 -0.0400629 0.0114983 0.0390626 -0.040898 0.0114983 
0.076158 -0.039074 0.0114983 0.0957778 -0.0375473 0.0114983 -0.0377855 -0.0359284 0.0114983 
-0.00856902 -0.035266 0.0114983 -0.00218765 -0.0358247 0.0114983 0.00169382 -0.0369437 0.011501 
0.00649072 -0.0352305 0.0114983 0.00952257 -0.035701 0.0114983 0.0137787 -0.0364539 0.0114983 
0.0312181 -0.0347988 0.0114983 0.0729714 -0.0365887 0.0114983 0.0822739 -0.0345475 0.0114983 
-0.0825513 -0.0321801 0.0114983 -0.0761193 -0.0320899 0.0114983 -0.0353581 -0.0332479 0.0114983 
-0.0268806 -0.0304294 0.0114983 -0.00644754 -0.033117 0.0114983 -0.000466307 -0.0333013 0.0114983 
0.00735472 -0.0321492 0.0115389 0.0104667 -0.0317614 0.0114983 0.0230141 -0.0362968 0.0114983 
0.030325 -0.0315022 0.0115562 0.034624 -0.0331296 0.0115304 0.0371425 -0.0309807 0.0114983 
0.049863 -0.032075 0.0114983 -0.0913041 -0.026699 0.0114983 -0.0343701 -0.02987 0.0114983 
-0.0275448 -0.0262792 0.0114983 -0.013203 -0.0293332 0.0114983 0.0024208 -0.0285821 0.0115357 
0.00533043 -0.0293748 0.0114984 0.00835265 -0.0287965 0.0114983 0.0138115 -0.0281325 0.0114983 
0.0211698 -0.0262983 0.0126321 0.0319038 -0.0289088 0.0114995 0.0446719 -0.0287583 0.0114983 
0.0493967 -0.0282102 0.0114983 -0.0864803 -0.0265974 0.0114983 -0.0654295 -0.0242751 0.0114983 
0.00292312 -0.0250546 0.0114983 0.00618031 -0.023456 0.0114987 0.0062114 -0.0264598 0.0114982 
0.00885426 -0.0249223 0.0114983 0.0386067 -0.0232253 0.0115516 0.0423635 -0.0250209 0.0114983 
0.0812528 -0.0237019 0.0114983 0.0951752 -0.0248938 0.0114983 -0.0652016 -0.0201447 0.0114983 
-0.0538956 -0.0221805 0.0114983 -0.00748959 -0.0215102 0.0115895 0.00094933 -0.0227236 0.0114983 
0.00421025 -0.0211933 0.0115791 0.0138584 -0.0224027 0.0117151 0.0175305 -0.0200664 0.0115021 
0.0319285 -0.0226683 0.0114983 -0.0644752 -0.017015 0.0114983 -0.0463438 -0.0162374 0.0114983 
-0.029489 -0.0181186 0.0114955 -0.00199066 -0.0170883 0.0115003 0.00526016 -0.0182596 0.0114983 
0.0127577 -0.0194654 0.0114983 0.0194352 -0.0177452 0.0114972 0.022596 -0.0185906 0.0119431 
0.02625 -0.0182734 0.0114983 0.0324441 -0.018371 0.0114983 0.0365214 -0.0193484 0.0114983 
0.0478125 -0.0192491 0.0114983 -0.0863222 -0.012763 0.0114983 -0.053806 -0.0123442 0.0114983 
-0.0465311 -0.0130449 0.0114987 -0.0432199 -0.0149246 0.0114983 -0.0300597 -0.0130157 0.0114984 
-0.0177086 -0.0152677 0.0114977 -0.00114068 -0.0133265 0.0114998 0.026485 -0.0153372 0.0130794 
0.0346864 -0.0149466 0.0114905 0.0608195 -0.0128405 0.0114983 -0.0893069 -0.0116692 0.0114983 
-0.0665155 -0.00926404 0.0114983 -0.0525582 -0.00940948 0.0114983 -0.0308064 -0.0100881 0.0115142 
-0.0273761 -0.0110907 0.0114983 -0.0234206 -0.0102329 0.0115021 -0.0201567 -0.0115587 0.0114983 
-0.0122588 -0.00996063 0.0117278 -0.0058622 -0.0096536 0.0114937 -0.00350095 -0.0114915 0.0114942 
0.00125171 -0.00938227 0.0114981 0.00586898 -0.0112389 0.0114977 0.0145123 -0.00997798 0.0114983 
0.0632603 -0.0102737 0.0114983 -0.0957191 -0.00780647 0.0114983 -0.0924025 -0.00890395 0.0114983 
-0.0785894 -0.00808593 0.0114983 -0.060846 -0.00768167 0.0114983 -0.0573854 -0.00763625 0.0114983 
-0.0466551 -0.00726819 0.0114983 -0.0323895 -0.00748611 0.0114998 -0.029393 -0.00734523 0.0115163 
-0.019751 -0.00787544 0.0114983 -0.0162832 -0.00530519 0.0119396 -0.0141298 -0.00740033 0.0115432 
-0.0108855 -0.00673234 0.0115532 -0.00751804 -0.00629575 0.0115864 0.00783892 -0.00874861 0.0115607 
0.011723 -0.00830708 0.0115221 0.0523174 -0.00646584 0.0114983 0.0596662 -0.0061312 0.0114983 
0.0691842 -0.00616568 0.0114983 0.0841101 -0.00767082 0.0114983 0.0908408 -0.00557099 0.0114983 
-0.0661371 -0.00464796 0.0114983 -0.0498462 -0.00381166 0.0114983 -0.020131 -0.00403385 0.0125105 
-0.0223275 -0.00128603 0.0115177 -0.0135691 -0.00406005 0.0115718 -0.010546 -0.00366192 0.0115013 
-0.00611204 -0.00363259 0.0114956 0.0014097 -0.00462883 0.0114981 0.0145602 -0.00414924 0.0114964 
0.0172103 -0.00267266 0.0114984 0.0207076 -0.00322304 0.0114983 0.0358558 -0.00354611 0.0114982 
0.0678645 -0.00293995 0.0114983 0.0761187 -0.00263248 0.0114983 -0.0948365 0.000625937 0.0114983 
-0.0645795 0.000354763 0.0114983 -0.0498826 0.00106888 0.0114984 -0.0210953 0.00208811 0.0115198 
0.00776547 -0.00129801 0.0114984 0.00628419 0.00127384 0.0119605 0.0181362 0.000277739 0.0114983 
0.0236484 -0.000393083 0.011497 0.0368165 -0.000706416 0.0114967 0.0478214 0.00145104 0.0114985 
0.0702751 -0.000792273 0.0114983 0.0734475 -0.000407865 0.0114983 -0.0478779 0.00365392 0.0114983 
-0.044938 0.00427192 0.0114977 -0.0420203 0.00166461 0.0114983 -0.0244428 0.0038381 0.0120482 
-0.0112455 0.00198916 0.0114983 -0.00850089 0.00366891 0.0115021 -0.00483299 0.00251948 0.0114983 
0.00447793 0.00369479 0.0114947 0.00797384 0.00410538 0.0115184 0.0155578 0.00375446 0.0114983 
0.0189414 0.00326348 0.0114983 0.0222591 0.00454498 0.0114994 0.0355713 0.00296257 0.0114983 
0.0386026 0.00170339 0.0114982 0.0411708 0.00358032 0.0114963 0.0505845 0.0040762 0.0115548 
0.095076 0.00216307 0.0114983 -0.0664449 0.0053204 0.0114983 -0.0628326 0.00556407 0.0114983 
-0.0575381 0.00644711 0.0114983 -0.0496207 0.00810261 0.0114983 -0.0427765 0.0063461 0.0114989 
-0.0344085 0.00673236 0.0114983 -0.0169199 0.00845717 0.0115 -0.0135036 0.00809929 0.0114985 
-0.00916404 0.00657205 0.0117875 -0.00607124 0.00549133 0.0115269 -0.0043598 0.00825333 0.0114983 
0.00248814 0.00594917 0.011531 0.00623841 0.00660025 0.0114982 0.00871538 0.00851931 0.0114865 
0.0349208 0.00818031 0.0114983 0.0385395 0.00754524 0.0114983 0.0416705 0.0083918 0.0114984 
-0.0953262 0.0104386 0.0114983 -0.0828777 0.0096143 0.0114983 -0.0221152 0.010218 0.0114983 
-0.0185664 0.0109977 0.0115261 -0.0147805 0.0108156 0.0118203 -0.00734032 0.00902347 0.0114943 
-0.000581439 0.0100193 0.0114983 0.0315514 0.0108391 0.0114983 0.0394531 0.0104134 0.0114983 
0.0445774 0.012007 0.0114983 0.0724071 0.00934468 0.0114983 0.0754952 0.00931374 0.0114983 
0.0800302 0.0124227 0.0114983 -0.094227 0.0137076 0.0114983 -0.0916928 0.0153709 0.0114983 
[...]
POINT_DATA 934
FIELD FieldData 7
id 1 934 int
30 89 12 6 105 206 52 356 59 
77 397 243 363 208 2 4 386 416 
189 324 265 9 112 154 262 10 526 
119 200 137 229 222 393 258 252 267 
406 73 514 173 76 343 83 108 328 
319 50 125 242 498 110 19 283 290 
307 18 8 97 591 192 353 333 75 
281 90 161 458 418 11 71 409 268 
85 523 179 202 378 32 152 475 101 
487 251 47 45 489 588 107 358 433 
63 425 218 240 371 263 438 559 23 
314 308 540 546 214 615 525 665 502 
726 352 566 109 205 693 598 695 339 
600 460 694 496 139 550 448 249 476 
172 120 521 612 123 587 626 292 164 
211 197 719 760 782 127 755 611 743 
807 524 603 482 436 320 721 744 578 
571 669 599 847 785 610 630 495 368 
809 677 679 443 560 500 305 507 663 
344 734 72 459 340 816 753 84 510 
572 185 444 278 656 849 798 643 681 
366 153 561 315 527 756 818 704 767 
705 585 64 227 36 772 25 347 303 
146 395 701 715 373 820 346 217 114 
174 412 651 575 768 250 499 617 126 
653 639 456 288 562 355 538 295 201 
501 474 473 842 150 757 765 533 689 
279 834 574 302 384 74 239 228 745 
244 447 652 783 163 601 420 411 96 
162 226 845 592 564 121 275 484 727 
731 833 759 690 573 687 257 334 253 
289 404 488 624 625 472 817 730 637 
703 511 532 740 579 522 210 204 332 
552 627 616 293 563 213 545 369 548 
342 61 291 553 432 264 407 316 855 
266 662 468 341 707 537 512 742 597 
136 165 577 836 779 345 576 642 359 
497 431 296 539 485 766 360 392 280 
329 419 678 640 190 565 717 590 86 
604 754 668 848 230 732 680 654 786 
424 198 33 434 549 605 797 676 589 
461 309 133 277 178 231 674 508 811 
421 520 720 628 655 613 692 370 140 
331 547 708 519 804 675 276 534 102 
629 513 486 445 483 536 318 649 641 
408 422 171 457 471 618 379 435 100 
747 650 382 769 631 330 450 357 688 
186 354 151 327 270 87 462 22 255 
385 321 437 38 238 463 215 551 49 
381 405 383 470 70 21 269 317 99 
372 446 148 423 399 449 241 304 122 
212 51 60 159 177 237 398 166 20 
256 394 224 254 134 39 223 176 88 
98 509 65 62 396 135 147 225 46 
111 187 124 203 26 149 216 175 34 
191 57 58 188 35 301 410 306 138 
13 7 113 37 24 367 95 184 68 
260 261 375 132 168 541 529 325 167 
144 92 300 348 285 481 313 142 634 
336 42 477 156 464 389 635 594 528 
494 16 568 365 413 638 729 40 593 
750 414 15 581 506 467 583 518 452 
623 439 595 710 155 543 737 364 666 
387 219 157 718 812 129 248 67 337 
469 821 835 402 284 335 403 14 787 
784 29 323 660 879 141 867 504 274 
442 193 800 713 644 698 828 294 863 
235 773 417 247 3 91 131 887 814 
712 723 733 854 667 415 181 465 683 
391 843 657 794 246 380 170 709 671 
686 633 361 207 429 531 795 455 846 
706 736 646 376 79 286 557 728 810 
648 824 115 749 661 614 94 362 158 
596 776 619 861 517 351 696 684 670 
582 326 390 789 722 739 441 608 311 
622 427 869 609 802 700 480 271 350 
796 799 672 180 788 492 659 221 245 
183 762 831 777 746 714 27 763 606 
886 586 544 505 813 199 81 647 466 
752 491 451 232 117 41 145 195 791 
636 864 558 685 781 832 5 298 440 
66 567 236 774 143 570 584 822 454 
702 490 699 751 259 516 881 621 580 
106 555 55 691 116 853 607 859 761 
17 338 388 542 530 493 645 866 870 
738 697 778 620 673 209 322 377 658 
515 287 426 53 220 169 428 400 430 
272 790 273 54 103 349 556 44 478 
310 196 401 569 554 128 43 69 312 
93 80 297 299 664 182 194 234 479 
503 130 374 104 233 1 56 453 31 
28 118 78 602 862 825 880 830 857 
885 632 535 827 793 724 844 850 882 
801 808 871 851 878 840 883 865 858 
838 829 764 860 803 868 873 876 711 
748 806 839 775 771 741 852 682 856 
805 872 837 780 792 716 826 725 841 
877 893 899 770 758 895 875 819 874 
823 889 888 884 894 900 815 898 897 
735 896 908 911 890 891 892 910 907 
902 912 905 913 901 909 903 904 906 
914 922 917 920 925 923 915 924 919 
921 916 918 934 933 936 928 938 935 
926 930 927 937 931 932 929 
type 1 934 int
1 1 1 1 1 1 1 1 1 
1 1 1 1 1 1 1 1 1 
1 1 1 1 1 1 1 1 1 
1 1 1 1 1 1 1 1 1 
1 1 1 1 1 1 1 1 1 
1 1 1 1 1 1 1 1 1 
1 1 1 1 1 1 1 1 1 
1 1 1 1 1 1 1 1 1 
1 1 1 1 1 1 1 1 1 
1 1 1 1 1 1 1 1 1 
1 1 1 1 1 1 1 1 1 
1 1 1 1 1 1 1 1 1 
1 1 1 1 1 1 1 1 1 
1 1 1 1 1 1 1 1 1 
1 1 1 1 1 1 1 1 1 
1 1 1 1 1 1 1 1 1 
1 1 1 1 1 1 1 1 1 
1 1 1 1 1 1 1 1 1 
1 1 1 1 1 1 1 1 1 
1 1 1 1 1 1 1 1 1 
1 1 1 1 1 1 1 1 1 
1 1 1 1 1 1 1 1 1 
1 1 1 1 1 1 1 1 1 
1 1 1 1 1 1 1 1 1 
1 1 1 1 1 1 1 1 1 
1 1 1 1 1 1 1 1 1 
1 1 1 1 1 1 1 1 1 
1 1 1 1 1 1 1 1 1 
1 1 1 1 1 1 1 1 1 
1 1 1 1 1 1 1 1 1 
1 1 1 1 1 1 1 1 1 
1 1 1 1 1 1 1 1 1 
1 1 1 1 1 1 1 1 1 
1 1 1 1 1 1 1 1 1 
1 1 1 1 1 1 1 1 1 
1 1 1 1 1 1 1 1 1 
1 1 1 1 1 1 1 1 1 
1 1 1 1 1 1 1 1 1 
1 1 1 1 1 1 1 1 1 
1 1 1 1 1 1 1 1 1 
1 1 1 1 1 1 1 1 1 
1 1 1 1 1 1 1 1 1 
1 1 1 1 1 1 1 1 1 
1 1 1 1 1 1 1 1 1 
1 1 1 1 1 1 1 1 1 
1 1 1 1 1 1 1 1 1 
1 1 1 1 1 1 1 1 1 
1 1 1 1 1 1 1 1 1 
1 1 1 1 1 1 1 1 1 
1 1 1 1 1 1 1 1 1 
1 1 1 1 1 1 1 1 1 
1 1 1 1 1 1 1 1 1 
1 1 1 1 1 1 1 1 1 
1 1 1 1 1 1 1 1 1 
1 1 1 1 1 1 1 1 1 
1 1 1 1 1 1 1 1 1 
1 1 1 1 1 1 1 1 1 
1 1 1 1 1 1 1 1 1 
1 1 1 1 1 1 1 1 1 
1 1 1 1 1 1 1 1 1 
1 1 1 1 1 1 1 1 1 
1 1 1 1 1 1 1 1 1 
1 1 1 1 1 1 1 1 1 
1 1 1 1 1 1 1 1 1 
1 1 1 1 1 1 1 1 1 
1 1 1 1 1 1 1 1 1 
1 1 1 1 1 1 1 1 1 
1 1 1 1 1 1 1 1 1 
1 1 1 1 1 1 1 1 1 
1 1 1 1 1 1 1 1 1 
1 1 1 1 1 1 1 1 1 
1 1 1 1 1 1 1 1 1 
1 1 1 1 1 1 1 1 1 
1 1 1 1 1 1 1 1 1 
1 1 1 1 1 1 1 1 1 
1 1 1 1 1 1 1 1 1 
1 1 1 1 1 1 1 1 1 
1 1 1 1 1 1 1 1 1 
1 1 1 1 1 1 1 1 1 
1 1 1 1 1 1 1 1 1 
1 1 1 1 1 1 1 1 1 
1 1 1 1 1 1 1 1 1 
1 1 1 1 1 1 1 1 1 
1 1 1 1 1 1 1 1 1 
1 1 1 1 1 1 1 1 1 
1 1 1 1 1 1 1 1 1 
1 1 1 1 1 1 1 1 1 
1 1 1 1 1 1 1 1 1 
1 1 1 1 1 1 1 1 1 
1 1 1 1 1 1 1 1 1 
1 1 1 1 1 1 1 1 1 
1 1 1 1 1 1 1 1 1 
1 1 1 1 1 1 1 1 1 
1 1 1 1 1 1 1 1 1 
1 1 1 1 1 1 1 1 1 
1 1 1 1 1 1 1 1 1 
1 1 1 1 1 1 1 1 1 
1 1 1 1 1 1 1 1 1 
1 1 1 1 1 1 1 1 1 
1 1 1 1 1 1 1 1 1 
1 1 1 1 1 1 1 1 1 
1 1 1 1 1 1 1 1 1 
1 1 1 1 1 1 1 1 1 
1 1 1 1 1 1 1 
i 3 934 int
0 0 0 0 0 0 0 0 0 
0 0 0 0 0 0 0 0 0 
0 0 0 0 0 0 0 0 0 
0 0 0 0 0 0 0 0 0 
0 0 0 0 0 0 0 0 0 
0 0 0 0 0 0 0 0 0 
0 0 0 0 0 0 0 0 0 
0 0 0 0 0 0 0 0 0 
0 0 0 0 0 0 0 0 0 
0 0 0 0 0 0 0 0 0 
0 0 0 0 0 0 0 0 0 
0 0 0 0 0 0 0 0 0 
0 0 0 0 0 0 0 0 0 
0 0 0 0 0 0 0 0 0 
0 0 0 0 0 0 0 0 0 
0 0 0 0 0 0 0 0 0 
0 0 0 0 0 0 0 0 0 
0 0 0 0 0 0 0 0 0 
0 0 0 0 0 0 0 0 0 
0 0 0 0 0 0 0 0 0 
0 0 0 0 0 0 0 0 0 
0 0 0 0 0 0 0 0 0 
0 0 0 0 0 0 0 0 0 
0 0 0 0 0 0 0 0 0 
0 0 0 0 0 0 0 0 0 
0 0 0 0 0 0 0 0 0 
0 0 0 0 0 0 0 0 0 
0 0 0 0 0 0 0 0 0 
0 0 0 0 0 0 0 0 0 
0 0 0 0 0 0 0 0 0 
0 0 0 0 0 0 0 0 0 
0 0 0 0 0 0 0 0 0 
0 0 0 0 0 0 0 0 0 
0 0 0 0 0 0 0 0 0 
0 0 0 0 0 0 0 0 0 
0 0 0 0 0 0 0 0 0 
0 0 0 0 0 0 0 0 0 
0 0 0 0 0 0 0 0 0 
0 0 0 0 0 0 0 0 0 
0 0 0 0 0 0 0 0 0 
0 0 0 0 0 0 0 0 0 
0 0 0 0 0 0 0 0 0 
0 0 0 0 0 0 0 0 0 
0 0 0 0 0 0 0 0 0 
0 0 0 0 0 0 0 0 0 
0 0 0 0 0 0 0 0 0 
0 0 0 0 0 0 0 0 0 
0 0 0 0 0 0 0 0 0 
0 0 0 0 0 0 0 0 0 
0 0 0 0 0 0 0 0 0 
0 0 0 0 0 0 0 0 0 
0 0 0 0 0 0 0 0 0 
0 0 0 0 0 0 0 0 0 
0 0 0 0 0 0 0 0 0 
0 0 0 0 0 0 0 0 0 
0 0 0 0 0 0 0 0 0 
0 0 0 0 0 0 0 0 0 
0 0 0 0 0 0 0 0 0 
0 0 0 0 0 0 0 0 0 
0 0 0 0 0 0 0 0 0 
0 0 0 0 0 0 0 0 0 
0 0 0 0 0 0 0 0 0 
0 0 0 0 0 0 0 0 0 
0 0 0 0 0 0 0 0 0 
0 0 0 0 0 0 0 0 0 
0 0 0 0 0 0 0 0 0 
0 0 0 0 0 0 0 0 0 
0 0 0 0 0 0 0 0 0 
0 0 0 0 0 0 0 0 0 
0 0 0 0 0 0 0 0 0 
0 0 0 0 0 0 0 0 0 
0 0 0 0 0 0 0 0 0 
0 0 0 0 0 0 0 0 0 
0 0 0 0 0 0 0 0 0 
0 0 0 0 0 0 0 0 0 
0 0 0 0 0 0 0 0 0 
0 0 0 0 0 0 0 0 0 
0 0 0 0 0 0 0 0 0 
0 0 0 0 0 0 0 0 0 
0 0 0 0 0 0 0 0 0 
0 0 0 0 0 0 0 0 0 
0 0 0 0 0 0 0 0 0 
0 0 0 0 0 0 0 0 0 
0 0 0 0 0 0 0 0 0 
0 0 0 0 0 0 0 0 0 
0 0 0 0 0 0 0 0 0 
0 0 0 0 0 0 0 0 0 
0 0 0 0 0 0 0 0 0 
0 0 0 0 0 0 0 0 0 
0 0 0 0 0 0 0 0 0 
0 0 0 0 0 0 0 0 0 
0 0 0 0 0 0 0 0 0 
0 0 0 0 0 0 0 0 0 
0 0 0 0 0 0 0 0 0 
0 0 0 0 0 0 0 0 0 
0 0 0 0 0 0 0 0 0 
0 0 0 0 0 0 0 0 0 
0 0 0 0 0 0 0 0 0 
0 0 0 0 0 0 0 0 0 
0 0 0 0 0 0 0 0 0 
0 0 0 0 0 0 0 0 0 
0 0 0 0 0 0 0 0 0 
0 0 0 0 0 0 0 0 0 
0 0 0 0 0 0 0 0 0 
0 0 0 0 0 0 0 0 0 
0 0 0 0 0 0 0 0 0 
0 0 0 0 0 0 0 0 0 
0 0 0 0 0 0 0 0 0 
0 0 0 0 0 0 0 0 0 
0 0 0 0 0 0 0 0 0 
0 0 0 0 0 0 0 0 0 
0 0 0 0 0 0 0 0 0 
0 0 0 0 0 0 0 0 0 
0 0 0 0 0 0 0 0 0 
0 0 0 0 0 0 0 0 0 
0 0 0 0 0 0 0 0 0 
0 0 0 0 0 0 0 0 0 
0 0 0 0 0 0 0 0 0 
0 0 0 0 0 0 0 0 0 
0 0 0 0 0 0 0 0 0 
0 0 0 0 0 0 0 0 0 
0 0 0 0 0 0 0 0 0 
0 0 0 0 0 0 0 0 0 
0 0 0 0 0 0 0 0 0 
0 0 0 0 0 0 0 0 0 
0 0 0 0 0 0 0 0 0 
0 0 0 0 0 0 0 0 0 
0 0 0 0 0 0 0 0 0 
0 0 0 0 0 0 0 0 0 
0 0 0 0 0 0 0 0 0 
0 0 0 0 0 0 0 0 0 
0 0 0 0 0 0 0 0 0 
0 0 0 0 0 0 0 0 0 
0 0 0 0 0 0 0 0 0 
0 0 0 0 0 0 0 0 0 
0 0 0 0 0 0 0 0 0 
0 0 0 0 0 0 0 0 0 
0 0 0 0 0 0 0 0 0 
0 0 0 0 0 0 0 0 0 
0 0 0 0 0 0 0 0 0 
0 0 0 0 0 0 0 0 0 
0 0 0 0 0 0 0 0 0 
0 0 0 0 0 0 0 0 0 
0 0 0 0 0 0 0 0 0 
0 0 0 0 0 0 0 0 0 
0 0 0 0 0 0 0 0 0 
0 0 0 0 0 0 0 0 0 
0 0 0 0 0 0 0 0 0 
0 0 0 0 0 0 0 0 0 
0 0 0 0 0 0 0 0 0 
0 0 0 0 0 0 0 0 0 
0 0 0 0 0 0 0 0 0 
0 0 0 0 0 0 0 0 0 
0 0 0 0 0 0 0 0 0 
0 0 0 0 0 0 0 0 0 
0 0 0 0 0 0 0 0 0 
0 0 0 0 0 0 0 0 0 
0 0 0 0 0 0 0 0 0 
0 0 0 0 0 0 0 0 0 
0 0 0 0 0 0 0 0 0 
0 0 0 0 0 0 0 0 0 
0 0 0 0 0 0 0 0 0 
0 0 0 0 0 0 0 0 0 
0 0 0 0 0 0 0 0 0 
0 0 0 0 0 0 0 0 0 
0 0 0 0 0 0 0 0 0 
0 0 0 0 0 0 0 0 0 
0 0 0 0 0 0 0 0 0 
0 0 0 0 0 0 0 0 0 
0 0 0 0 0 0 0 0 0 
0 0 0 0 0 0 0 0 0 
0 0 0 0 0 0 0 0 0 
0 0 0 0 0 0 0 0 0 
0 0 0 0 0 0 0 0 0 
0 0 0 0 0 0 0 0 0 
0 0 0 0 0 0 0 0 0 
0 0 0 0 0 0 0 0 0 
0 0 0 0 0 0 0 0 0 
0 0 0 0 0 0 0 0 0 
0 0 0 0 0 0 0 0 0 
0 0 0 0 0 0 0 0 0 
0 0 0 0 0 0 0 0 0 
0 0 0 0 0 0 0 0 0 
0 0 0 0 0 0 0 0 0 
0 0 0 0 0 0 0 0 0 
0 0 0 0 0 0 0 0 0 
0 0 0 0 0 0 0 0 0 
0 0 0 0 0 0 0 0 0 
0 0 0 0 0 0 0 0 0 
0 0 0 0 0 0 0 0 0 
0 0 0 0 0 0 0 0 0 
0 0 0 0 0 0 0 0 0 
0 0 0 0 0 0 0 0 0 
0 0 0 0 0 0 0 0 0 
0 0 0 0 0 0 0 0 0 
0 0 0 0 0 0 0 0 0 
0 0 0 0 0 0 0 0 0 
0 0 0 0 0 0 0 0 0 
0 0 0 0 0 0 0 0 0 
0 0 0 0 0 0 0 0 0 
0 0 0 0 0 0 0 0 0 
0 0 0 0 0 0 0 0 0 
0 0 0 0 0 0 0 0 0 
0 0 0 0 0 0 0 0 0 
0 0 0 0 0 0 0 0 0 
0 0 0 0 0 0 0 0 0 
0 0 0 0 0 0 0 0 0 
0 0 0 0 0 0 0 0 0 
0 0 0 0 0 0 0 0 0 
0 0 0 0 0 0 0 0 0 
0 0 0 0 0 0 0 0 0 
0 0 0 0 0 0 0 0 0 
0 0 0 0 0 0 0 0 0 
0 0 0 0 0 0 0 0 0 
0 0 0 0 0 0 0 0 0 
0 0 0 0 0 0 0 0 0 
0 0 0 0 0 0 0 0 0 
0 0 0 0 0 0 0 0 0 
0 0 0 0 0 0 0 0 0 
0 0 0 0 0 0 0 0 0 
0 0 0 0 0 0 0 0 0 
0 0 0 0 0 0 0 0 0 
0 0 0 0 0 0 0 0 0 
0 0 0 0 0 0 0 0 0 
0 0 0 0 0 0 0 0 0 
0 0 0 0 0 0 0 0 0 
0 0 0 0 0 0 0 0 0 
0 0 0 0 0 0 0 0 0 
0 0 0 0 0 0 0 0 0 
0 0 0 0 0 0 0 0 0 
0 0 0 0 0 0 0 0 0 
0 0 0 0 0 0 0 0 0 
0 0 0 0 0 0 0 0 0 
0 0 0 0 0 0 0 0 0 
0 0 0 0 0 0 0 0 0 
0 0 0 0 0 0 0 0 0 
0 0 0 0 0 0 0 0 0 
0 0 0 0 0 0 0 0 0 
0 0 0 0 0 0 0 0 0 
0 0 0 0 0 0 0 0 0 
0 0 0 0 0 0 0 0 0 
0 0 0 0 0 0 0 0 0 
0 0 0 0 0 0 0 0 0 
0 0 0 0 0 0 0 0 0 
0 0 0 0 0 0 0 0 0 
0 0 0 0 0 0 0 0 0 
0 0 0 0 0 0 0 0 0 
0 0 0 0 0 0 0 0 0 
0 0 0 0 0 0 0 0 0 
0 0 0 0 0 0 0 0 0 
0 0 0 0 0 0 0 0 0 
0 0 0 0 0 0 0 0 0 
0 0 0 0 0 0 0 0 0 
0 0 0 0 0 0 0 0 0 
0 0 0 0 0 0 0 0 0 
0 0 0 0 0 0 0 0 0 
0 0 0 0 0 0 0 0 0 
0 0 0 0 0 0 0 0 0 
0 0 0 0 0 0 0 0 0 
0 0 0 0 0 0 0 0 0 
0 0 0 0 0 0 0 0 0 
0 0 0 0 0 0 0 0 0 
0 0 0 0 0 0 0 0 0 
0 0 0 0 0 0 0 0 0 
0 0 0 0 0 0 0 0 0 
0 0 0 0 0 0 0 0 0 
0 0 0 0 0 0 0 0 0 
0 0 0 0 0 0 0 0 0 
0 0 0 0 0 0 0 0 0 
0 0 0 0 0 0 0 0 0 
0 0 0 0 0 0 0 0 0 
0 0 0 0 0 0 0 0 0 
0 0 0 0 0 0 0 0 0 
0 0 0 0 0 0 0 0 0 
0 0 0 0 0 0 0 0 0 
0 0 0 0 0 0 0 0 0 
0 0 0 0 0 0 0 0 0 
0 0 0 0 0 0 0 0 0 
0 0 0 0 0 0 0 0 0 
0 0 0 0 0 0 0 0 0 
0 0 0 0 0 0 0 0 0 
0 0 0 0 0 0 0 0 0 
0 0 0 0 0 0 0 0 0 
0 0 0 0 0 0 0 0 0 
0 0 0 0 0 0 0 0 0 
0 0 0 0 0 0 0 0 0 
0 0 0 0 0 0 0 0 0 
0 0 0 0 0 0 0 0 0 
0 0 0 0 0 0 0 0 0 
0 0 0 0 0 0 0 0 0 
0 0 0 0 0 0 0 0 0 
0 0 0 0 0 0 0 0 0 
0 0 0 0 0 0 0 0 0 
0 0 0 0 0 0 0 0 0 
0 0 0 0 0 0 0 0 0 
0 0 0 0 0 0 0 0 0 
0 0 0 0 0 0 0 0 0 
0 0 0 0 0 0 0 0 0 
0 0 0 0 0 0 0 0 0 
0 0 0 0 0 0 0 0 0 
0 0 0 0 0 0 0 0 0 
0 0 0 0 0 0 0 0 0 
0 0 0 0 0 0 0 0 0 
0 0 0 0 0 0 0 0 0 
0 0 0 0 0 0 0 0 0 
0 0 0 0 0 0 0 0 0 
0 0 0 0 0 0 0 0 0 
0 0 0 0 0 0 0 0 0 
0 0 0 0 0 0 0 0 0 
0 0 0 0 0 0 0 0 0 
0 0 0 0 0 0 0 0 0 
0 0 0 
v 3 934 double
-0.0504897 -0.215186 -3.02713 -0.219404 -0.368802 -2.99382 -0.0652621 -0.178092 -2.9182 
-0.130769 -0.28505 -2.8684 0.110456 -0.254487 -2.78148 0.0931829 -0.278324 -2.62703 
0.119796 -0.234867 -2.62214 0.0372947 -0.0785268 -2.45814 0.106629 -0.303408 -2.27144 
0.0320011 -0.30201 -2.26678 0.161289 -0.384775 -2.17433 -0.0723875 -0.258201 -2.18603 
0.0225701 -0.264759 -2.1318 -0.0547895 -0.244818 -2.0024 0.059008 -0.199292 -1.3759 
-0.073182 -0.185656 -1.30336 -0.0104286 -0.398357 -1.07702 -0.00751726 -0.291374 -1.04015 
0.17727 -0.259586 -1.04992 0.00338133 -0.202314 -1.04614 0.0727492 -0.191094 -0.966441 
0.000932047 -0.185507 -0.922683 0.00525555 -0.179237 -0.866512 -0.0295349 -0.217813 -0.85302 
-0.020506 -0.195886 -0.741228 0.0664469 -0.176129 -0.662975 -0.0166739 -0.315829 -0.590348 
-0.0499472 -0.156625 -0.628237 0.190098 -0.180191 -0.643373 0.0191592 -0.165968 -0.502446 
-0.0885939 -0.164217 -0.509803 0.0315197 -0.158784 -0.496885 0.076366 -0.155137 -0.489685 
-0.0972053 -0.167425 -0.369715 -0.116153 -0.146507 -0.152842 -0.0714214 -0.178438 -0.191064 
-0.0765058 -0.242214 -0.205238 -0.0598722 -0.124393 9.77819e-16 -0.00673701 -0.226771 -3.85298e-14 
0.0407966 -0.144687 -2.27271e-14 0.0391899 -0.177566 4.8386e-14 0.0221214 -0.0722529 -8.59364e-14 
-0.0137142 -0.123754 -6.92356e-15 -0.0261645 -0.126083 -7.80351e-14 0.0441874 -0.142081 -2.27263e-14 
0.127005 -0.163009 3.25825e-14 0.116578 -0.107457 -6.92278e-15 -0.00326197 -0.139485 9.7782e-16 
-0.146195 -0.170031 -7.80359e-14 -0.0360998 -0.18353 -8.64003e-10 0.0242316 -0.124981 -1.48241e-14 
-0.011223 -0.0951381 5.48855e-14 0.076742 -0.0639368 -3.06269e-14 -0.110541 -0.180523 -3.06269e-14 
-0.0476116 -0.143061 -7.01345e-14 -0.0546401 -0.0989205 9.77824e-16 -0.0356301 -0.116554 -1.48249e-14 
0.0749032 -0.13184 7.20901e-14 -0.153785 -0.157784 -6.22324e-14 0.0109714 -0.124992 -4.64296e-14 
0.0234237 -0.181662 -0.00127462 0.00174516 -0.123609 -6.22331e-14 0.0193322 -0.0994086 7.20901e-14 
-0.0854144 -0.108063 6.41895e-14 -0.0182229 -0.0836891 -3.85298e-14 0.00210227 -0.0996632 -6.22331e-14 
0.00656257 -0.125271 1.67805e-14 0.0489767 -0.134619 -8.59372e-14 0.0819189 -0.0980738 -7.80359e-14 
0.00583158 -0.059853 5.57006e-14 -0.0773522 -0.0809323 -2.27263e-14 -0.0515001 -0.0874587 5.62866e-14 
-0.0277227 -0.0800309 -3.85298e-14 -0.014915 -0.0785863 -7.01345e-14 -0.0219035 -0.0556811 9.77811e-16 
-0.0840832 -0.0749088 1.67805e-14 -0.0894644 -0.104562 4.04854e-14 -0.0668285 -0.0977167 7.99923e-14 
-0.0748068 -0.088697 8.87997e-15 0.0143897 -0.149513 -3.06277e-14 0.0151744 -0.147841 8.87918e-15 
-0.0158023 -0.14711 -5.43325e-14 0.0528025 -0.0461127 -7.01337e-14 0.000354374 -0.0363374 -3.06276e-14 
-0.00293216 -0.0481382 1.14064e-12 -0.11334 -0.159321 -8.59365e-14 0.0318518 -0.116091 -5.43325e-14 
-0.0161478 -0.0224064 -3.0265e-12 0.0101449 -0.135741 -9.98749e-10 -0.0124433 -0.0548651 -7.80351e-14 
0.110911 -0.113573 7.99923e-14 -0.0677278 -0.0574202 7.99923e-14 -0.0425864 -0.0622725 1.18049e-07 
-0.0520246 -0.083187 1.6812e-07 -0.140329 -0.212097 0.000824633 0.0305597 -0.126481 -9.15814e-08 
0.0139567 -0.0998245 -4.64296e-14 0.0341431 -0.122185 -8.17831e-12 -0.0156926 -0.0565925 5.24913e-12 
-0.0631262 -0.109895 -6.05673e-07 -0.078928 -0.182368 0.0205958 0.0357841 -0.0749751 9.64722e-09 
0.00261602 -0.091882 -1.48249e-14 0.0201989 -0.085636 3.84099e-08 0.0117506 -0.104731 1.15417e-07 
0.0599066 -0.113818 -2.27271e-14 -0.0650849 -0.107322 2.33678e-13 -0.103454 -0.0464198 0.00983804 
0.0948735 -0.166356 -3.85339e-05 -0.0175179 -0.0624341 1.67798e-14 0.0143753 -0.0943395 0.00363409 
0.0291823 -0.0999352 -4.64296e-14 -0.136834 -0.102787 2.46819e-14 -0.120499 0.114525 0.00133005 
-0.232743 -0.0737716 -4.64296e-14 -0.0831408 -0.0869441 -0.0156438 0.00699268 -0.0939098 -3.71734e-13 
-0.140974 -0.0650835 0.0331621 -0.0106009 -0.0725235 1.82778e-05 0.00789149 -0.061316 0.00289553 
0.0129551 -0.0827072 -4.11996e-13 0.0872588 -0.120187 -2.27271e-14 0.0379671 -0.0976953 -4.64296e-14 
0.129199 -0.0388224 3.37405e-05 -0.0228543 -0.0119895 8.87102e-05 -0.0991998 -0.0648268 -2.93898e-08 
-0.0182174 -0.0937142 -6.64751e-08 0.0381832 -0.075208 -6.64417e-08 0.00477202 -0.0501326 0.000550282 
0.035446 -0.0543706 1.05796e-06 0.0382126 -0.0950807 -5.16435e-10 0.0163322 -0.0871708 -5.43325e-14 
0.0575045 -0.118998 4.79245e-14 0.141373 -0.0507553 6.41888e-14 0.121053 -0.027244 1.67798e-14 
-0.110001 -0.0718188 -5.43318e-14 -0.0847311 -0.0858302 7.06488e-08 -0.125668 -0.0718503 6.41888e-14 
-0.110189 -0.0308218 7.11326e-13 -0.0198427 -0.0891977 -4.74607e-08 0.042197 -0.0715038 2.97695e-07 
-0.0288856 0.0262846 0.0239164 0.0352585 -0.064114 5.91316e-05 0.176374 -0.428815 -2.87734e-06 
0.228659 -0.182 -0.0171067 0.109581 -0.172686 -0.00802566 0.0876653 -0.0701819 -4.24239e-08 
0.0968225 -0.0631003 -5.43325e-14 -0.0253971 -0.000332265 -7.01337e-14 -0.0175153 -0.0686136 3.12649e-06 
-0.116164 0.044337 2.23879e-06 -0.107854 -0.0541514 2.47092e-14 0.0376072 -0.0513917 0.00479156 
0.042541 -0.0608011 -0.00294599 0.0497793 -0.105689 -3.88591e-07 0.065673 -0.0984387 -1.48241e-14 
0.0589479 0.0586192 0.0233654 0.213358 -0.171444 0.00361345 0.144014 -0.0581768 1.64682e-13 
0.148523 -0.0755236 7.20909e-14 0.0635725 -0.0682041 1.67805e-14 -0.11584 -0.00639306 -7.80359e-14 
0.0313797 -0.0207697 -1.09912e-06 0.084682 -0.0422114 0.000354388 0.0406044 -0.0438731 0.000883723 
0.0453514 -0.0125206 0.00013734 0.0357358 -0.0168648 -0.0422513 0.111979 -0.0610125 3.95153e-14 
0.0826052 -0.0626802 -5.43325e-14 -0.0054275 0.0227026 1.81397e-12 -0.0223891 0.0622463 2.34542e-06 
-0.0717492 -0.0273378 -6.92277e-15 -0.0188615 -0.0746501 0.0117995 0.00056542 -0.0357484 8.75729e-06 
0.0675898 -0.0500993 -0.0767651 0.0658076 -0.0261231 0.0190825 0.081432 -0.0407844 -0.0073928 
0.206704 -0.208966 -6.93663e-06 -0.111967 0.0170613 9.78598e-16 -0.0905264 -0.0199488 -2.45016e-06 
-0.0588623 0.0425572 -0.0520608 -0.0578167 -0.109978 -0.00595156 0.0619072 -0.0456107 -4.29906e-05 
-0.0323804 -0.0417621 8.3188e-08 0.0516848 -0.0116731 -0.00762614 0.0717698 -0.118963 -0.0353518 
0.0651498 -0.117906 -1.34735e-06 0.13499 -0.116393 -5.0205e-11 0.0644329 -0.0325487 4.8386e-14 
0.0850622 -0.0335981 -6.19476e-14 -0.0589925 0.00125798 2.32046e-08 -0.0768381 -0.00208285 -8.59347e-14 
-0.0991285 0.019351 -0.00142118 -0.0735715 -0.00793278 4.04839e-14 -0.0812287 -0.0186227 7.87666e-05 
-0.0179903 -0.0540081 0.00852448 0.013918 -0.026928 -0.00664846 0.177856 -0.111861 0.0701597 
0.196936 -0.0682811 -0.00286469 0.0471824 0.0171435 4.83852e-14 -0.0597831 0.0349804 -9.49166e-11 
-0.0900578 -0.00959852 -5.43325e-14 -0.111914 -0.00354925 7.20909e-14 -0.0599364 -0.0102748 0.0103703 
-0.0421829 -0.0253448 1.22095e-11 -0.0869813 0.00726836 0.0113487 -0.0700383 -0.00620522 -6.71237e-06 
-0.0463603 -0.127664 0.148513 -0.00404542 -0.0263827 0.0257332 -0.0216093 -0.0611175 0.0120308 
0.0216733 0.0043569 0.00159137 -0.0133506 -0.0361575 4.09117e-05 0.00248731 -0.115043 -1.29165e-08 
0.0780968 -0.0473809 -6.22331e-14 0.00077309 -0.0302594 8.87996e-15 -0.0187491 -0.0600697 -6.22323e-14 
-0.126031 -0.0593363 -4.64288e-14 -0.157192 -0.0136455 2.46827e-14 -0.148054 -0.0183782 8.87997e-15 
-0.106823 0.0111122 2.46819e-14 -0.0450227 0.01219 -0.00100141 -0.0589433 -0.01232 0.00234749 
-0.0659495 0.025251 -8.72262e-06 0.177726 0.138367 0.100179 0.0514452 -0.0641839 -0.0050227 
0.0165567 -0.0301223 0.0103109 0.0598108 0.0239793 0.0186259 0.0329885 -0.0239737 0.0143496 
0.0436439 0.0014374 -0.0125615 0.14064 -0.04117 0.000115221 0.149271 -0.0267726 1.67805e-14 
0.104207 -0.00480445 2.46819e-14 0.145883 0.00230105 4.04847e-14 0.141297 -0.0149811 -6.92355e-15 
-0.101558 0.000887718 -7.80359e-14 -0.13354 -0.0119066 7.76368e-09 0.149463 0.166609 0.199254 
-0.0963023 0.0926664 0.0308698 0.0849737 -0.0110467 -0.0306905 0.172958 0.0303118 -0.00266892 
0.0134214 0.0470424 -0.000894467 0.0662435 -0.000306043 0.00045791 0.0492423 -0.0523862 0.00353828 
0.0301514 -0.00720388 6.13997e-06 0.0145174 0.0306614 -3.36044e-12 0.0598659 0.00458576 -0.000983578 
0.0855201 -0.00171472 -3.06277e-14 0.136529 0.0295299 -5.43325e-14 -0.0309362 -0.0172491 1.5995e-12 
-0.150963 -0.033468 -6.22331e-14 -0.0288566 0.0467689 -0.000658088 0.00979905 0.239076 -0.0219901 