# vtk DataFile Version 4.0
Generated by LIGGGHTS
ASCII
DATASET POLYDATA
POINTS 1053 float
-0.0449581 -0.181783 -0.480894 0.093805 -0.221393 -0.477192 0.0241476 -0.182402 -0.462861 
0.0702119 -0.172977 -0.423432 0.0504841 -0.1467 -0.256666 -0.0690323 -0.14214 -0.239943 
-0.0167837 -0.181116 -0.192203 0.104037 -0.152159 -0.186719 -0.0248752 -0.140606 -0.184962 
0.00220728 -0.158255 -0.18376 0.0565301 -0.136784 -0.170292 -0.0956735 -0.134883 -0.161966 
0.0126346 -0.132679 -0.151563 -0.0142082 -0.139419 -0.148114 -0.033764 -0.133231 -0.128522 
0.0541378 -0.128459 -0.116564 0.104382 -0.128755 -0.113416 -0.0325099 -0.124794 -0.110014 
0.0929987 -0.148654 -0.105098 -0.0686491 -0.123975 -0.0930101 -0.0923104 -0.124105 -0.091939 
0.018959 -0.123008 -0.090135 0.0625649 -0.122334 -0.0900941 -0.0743961 -0.122081 -0.0725639 
-0.0143257 -0.127816 -0.0532812 -0.0239323 -0.120248 -0.0516625 -0.0951362 -0.116064 -0.0473997 
0.00969033 -0.12063 -0.0291588 0.0396133 -0.115309 -0.0249664 -0.0410969 -0.110904 -0.0260709 
0.0353622 -0.111857 -0.021387 -0.0237535 -0.107567 -0.00674891 0.0185488 -0.109664 -0.00980995 
0.0844644 -0.107374 0.00147174 0.06257 -0.107129 0.00357846 0.0956004 -0.105909 0.00273374 
-0.089869 -0.105066 0.00714748 -0.0253006 -0.106006 0.00624169 0.0356445 -0.105228 0.00488458 
0.0882796 -0.104574 0.0054299 -0.0922881 -0.10264 0.0075322 -0.0835594 -0.101468 0.0111737 
-0.0326875 -0.102622 0.0108933 0.013232 -0.103192 0.00838996 0.0846272 -0.101995 0.0115988 
-0.0231826 -0.0993971 0.0114983 0.0354608 -0.0988929 0.0114983 -0.0281638 -0.0933482 0.0114983 
0.0695601 -0.0946435 0.0114983 0.0945214 -0.0960659 0.0114983 -0.0750618 -0.0901306 0.0114983 
-0.0929117 -0.0889419 0.0114983 -0.0370937 -0.0895456 0.0114983 2.23191e-05 -0.0886643 0.0114983 
-0.0848598 -0.0858083 0.0114983 0.00450465 -0.0861862 0.0114983 0.00835747 -0.0846136 0.0114983 
0.0260705 -0.0856538 0.0114983 0.0383228 -0.0841632 0.0114983 -0.0625744 -0.0812808 0.0114983 
-0.0246909 -0.0801959 0.0114983 -0.0183811 -0.0814805 0.0114983 0.0156642 -0.079477 0.0114983 
-0.0273338 -0.0762473 0.0114983 0.0124045 -0.0790445 0.0114983 0.0811569 -0.0791194 0.0114983 
-0.0953705 -0.0741154 0.0115032 -0.0928422 -0.0724579 0.0115658 -0.0667901 -0.0747 0.0114983 
-0.0568071 -0.0737947 0.0114983 -0.0496991 -0.0736789 0.0114983 -0.0432091 -0.0752903 0.0114983 
-0.0234645 -0.0725616 0.0115469 0.0153261 -0.0755233 0.0114983 0.01235 -0.0727792 0.0114983 
-0.0691202 -0.0699016 0.0114983 -0.0620671 -0.0714995 0.0114983 -0.0413763 -0.0712064 0.0114983 
-0.0378312 -0.0695434 0.0114983 -0.0953027 -0.0683197 0.0115079 0.00688458 -0.0664728 0.0114983 
0.0344587 -0.0670694 0.0114983 0.0622995 -0.0684563 0.0114983 -0.0939664 -0.0648657 0.0114983 
-0.0960088 -0.0622188 0.0115061 -0.0334455 -0.064533 0.0114983 0.0137314 -0.0630974 0.0114983 
0.0185661 -0.0639681 0.0114983 0.0293246 -0.0634894 0.0114983 -0.0957641 -0.0589111 0.0114994 
-0.0612967 -0.0596456 0.0114983 -0.0446229 -0.0606208 0.0114983 -0.0382229 -0.0603617 0.0114983 
-0.00442371 -0.0598573 0.0114983 0.00751371 -0.0587192 0.0114983 0.0191721 -0.0605947 0.0114983 
0.0477535 -0.0615641 0.0114983 -0.0442415 -0.0575229 0.0114983 -0.0394304 -0.0567867 0.0114983 
-0.0225543 -0.0572408 0.0114983 -0.0185902 -0.0550092 0.0114983 -0.00544687 -0.0559463 0.0114983 
0.00228216 -0.0572967 0.0114983 0.0202386 -0.0577007 0.0114974 0.0204699 -0.0546626 0.011593 
0.0353752 -0.0567065 0.0114983 -0.0897556 -0.0531621 0.0115187 -0.0407379 -0.0511869 0.0114983 
0.0153216 -0.0538641 0.0114983 0.0399499 -0.0511872 0.0114983 0.0956393 -0.0536602 0.0114983 
-0.075882 -0.0508563 0.0114983 0.0140158 -0.0501826 0.0114983 0.0366039 -0.0477758 0.0114983 
0.0432426 -0.0507033 0.0114983 0.0470492 -0.0488813 0.0114983 -0.0394918 -0.0457966 0.0114983 
-0.0102815 -0.0440751 0.0114983 -0.00807541 -0.047063 0.0114983 -0.000467176 -0.0446172 0.0114983 
0.00316775 -0.0444548 0.0115057 0.013281 -0.0468407 0.0114983 0.0161217 -0.0445978 0.0114983 
0.0285753 -0.0453224 0.0114983 0.0408557 -0.046504 0.0114983 0.0483286 -0.0457845 0.0116645 
-0.0471783 -0.0424117 0.0114983 -0.0440782 -0.0432703 0.0114983 -0.0283752 -0.0424778 0.0115029 
0.00142961 -0.0420048 0.0114985 -0.00141101 -0.0410381 0.0115018 0.0137064 -0.0427262 0.0114983 
0.0192859 -0.0406282 0.0114983 0.0424348 -0.041822 0.0114983 0.04546 -0.0416078 0.0114983 
0.0835055 -0.0434203 0.0114983 -0.0783662 -0.0369462 0.0114983 -0.0465673 -0.0388184 0.0114983 
-0.0120429 -0.040527 0.0114983 -0.0088687 -0.0388706 0.0114983 -0.000780914 -0.0380868 0.0115633 
0.00269208 -0.0392694 0.011498 0.00999551 -0.040325 0.0114983 0.0137873 -0.037779 0.0114951 
0.0169719 -0.0384388 0.0114983 0.0245232 -0.0392735 0.0114983 0.0589643 -0.0380064 0.0114983 
0.0837575 -0.039216 0.0114983 0.0950465 -0.0386943 0.0114983 -0.0879922 -0.0357254 0.0114983 
-0.0361886 -0.0352276 0.0114983 -0.0168666 -0.0338606 0.0118059 -0.00688854 -0.0352758 0.0114984 
0.00113154 -0.0357927 0.0119886 0.0097451 -0.0352247 0.0114982 0.0166783 -0.0350564 0.0115999 
0.0229458 -0.0366753 0.011499 0.0300283 -0.0366575 0.0115998 0.0508564 -0.0353677 0.0114984 
0.0582092 -0.0342269 0.0114983 0.0633578 -0.0353094 0.0114983 0.0929879 -0.0365029 0.0114983 
-0.0676066 -0.0302691 0.0114983 -0.0381188 -0.0324627 0.0114983 -0.034014 -0.033027 0.0114982 
-0.0336079 -0.0299541 0.011609 -0.00733245 -0.0322495 0.0115482 -0.00428918 -0.0306272 0.0114983 
0.00102182 -0.0328336 0.0115221 0.00740078 -0.0333286 0.0115089 0.00667474 -0.0304256 0.0115585 
0.0115482 -0.0300655 0.0114983 0.0137109 -0.0326851 0.0114983 0.0186718 -0.0304153 0.0114983 
0.0384633 -0.0322729 0.0114983 0.042589 -0.0326376 0.0114983 0.0551068 -0.0322243 0.0114983 
-0.0937116 -0.0274936 0.0114983 -0.0856397 -0.0272893 0.0114983 -0.0299141 -0.0286134 0.0114983 
0.00236662 -0.0270749 0.0114983 0.00954552 -0.0277384 0.0115007 0.0227609 -0.026251 0.0116392 
0.0239927 -0.0299673 0.0114983 0.0268628 -0.0265271 0.0114983 0.0394424 -0.0285096 0.0114983 
0.0505504 -0.0286856 0.0114983 0.0890177 -0.0295939 0.0114983 -0.0763185 -0.024876 0.0114983 
-0.06064 -0.0247502 0.0114983 -0.032464 -0.0263549 0.0114983 -0.00809648 -0.0235846 0.0117164 
-0.000417382 -0.0254333 0.0114984 0.0016115 -0.0231843 0.0114981 0.00468732 -0.0235985 0.0114962 
0.00976701 -0.0239547 0.0114983 0.0262071 -0.0234702 0.0114983 0.0303867 -0.0242769 0.0114979 
0.0335543 -0.0243586 0.0114983 0.0368282 -0.0256867 0.0114983 0.0451246 -0.0245164 0.0114983 
0.0485984 -0.0253529 0.0114983 0.0555954 -0.0236475 0.0114983 0.0958902 -0.0228232 0.0114983 
-0.0415288 -0.0210578 0.0117003 -0.038734 -0.0222887 0.0114971 -0.0357611 -0.0214424 0.0122376 
-0.0315829 -0.0226955 0.0118994 0.00191066 -0.0202057 0.0116819 0.0449079 -0.0206723 0.0114983 
-0.0692295 -0.017711 0.0114983 -0.0548533 -0.0181126 0.0114983 -0.0359733 -0.0171829 0.0114983 
-0.00630531 -0.0181083 0.0115243 0.00457541 -0.0178993 0.0114983 0.0311245 -0.0174014 0.0114983 
0.0391724 -0.0187424 0.0114983 0.0427176 -0.0180059 0.0115245 -0.0954514 -0.0138465 0.0114983 
-0.0907003 -0.0141368 0.0114983 -0.0881268 -0.0125599 0.0114973 -0.0733421 -0.0140503 0.0114983 
-0.0611062 -0.0128836 0.0114983 -0.0501356 -0.0156703 0.0114983 -0.0369401 -0.0142557 0.0114983 
-0.0269799 -0.0158056 0.0115271 -0.0172943 -0.0139023 0.0114983 -0.0140302 -0.0137282 0.0114982 
-0.00780182 -0.0144935 0.0114983 -0.00349493 -0.0152055 0.0114983 0.00277606 -0.0129807 0.0117832 
0.00548644 -0.014454 0.011495 0.00891168 -0.0160589 0.0115848 0.011806 -0.0134466 0.0114983 
0.0211165 -0.01544 0.0114983 0.0510552 -0.0139963 0.0114984 0.0706014 -0.0147275 0.0114983 
-0.0958172 -0.00994593 0.0114983 -0.0914458 -0.0103152 0.0114983 -0.0749809 -0.0101663 0.0114983 
-0.0631622 -0.0089891 0.0114983 -0.0558496 -0.0112253 0.0114983 -0.0394638 -0.0116526 0.0114983 
-0.0362763 -0.0113031 0.0114983 -0.0297812 -0.0107034 0.0114983 -0.0267182 -0.0107518 0.011538 
-0.0232061 -0.0106861 0.0114983 -0.0193604 -0.0114638 0.0114861 -0.0157651 -0.0111665 0.0114962 
-0.0103079 -0.0122342 0.0114983 -0.0103531 -0.00923002 0.0114988 -0.00607434 -0.0108191 0.011761 
0.00459092 -0.00951574 0.0114985 0.0153925 -0.00915883 0.0115067 0.0192229 -0.0115 0.0114979 
0.0429284 -0.0112308 0.0117551 0.0642545 -0.00876581 0.0114983 0.065676 -0.0117859 0.0114983 
-0.0713572 -0.00577752 0.0114983 -0.0671748 -0.00813643 0.0114983 -0.0566964 -0.00622364 0.0114983 
-0.0390537 -0.00653086 0.0114983 -0.0343561 -0.00852983 0.0114983 -0.0239275 -0.00609348 0.0117742 
-0.0122667 -0.00646103 0.0114983 -0.00577417 -0.00777585 0.0114762 0.00889821 -0.00695094 0.0114983 
0.0134626 -0.00614071 0.0114983 0.0251549 -0.00681358 0.0114983 0.0331748 -0.00609028 0.0114983 
0.038241 -0.00635895 0.0114983 0.0736977 -0.00864782 0.0114983 0.0789796 -0.00661729 0.0114983 
0.0946624 -0.0087733 0.0114983 0.0959935 -0.00580834 0.0114983 -0.07877 -0.00279123 0.0114983 
-0.0756835 -0.00456451 0.0114983 -0.062399 -0.00493088 0.0114983 -0.0322645 -0.00257842 0.0115011 
-0.0261566 -0.00214931 0.0115066 -0.0070647 -0.00502076 0.0114969 0.022266 -0.00230281 0.0114978 
0.0261754 -0.00233591 0.0115254 0.0292853 -0.00526729 0.0114869 0.0396249 -0.00342145 0.0114983 
0.0430424 -0.00196373 0.0114983 0.0509635 -0.00184481 0.0114983 0.0759034 -0.00310113 0.0114983 
0.0834675 -0.00281415 0.0114983 0.0928776 -0.00520192 0.0114983 -0.0957021 -0.000851923 0.0114983 
-0.0489605 -0.000139678 0.0114983 -0.0337775 6.75477e-05 0.0114984 -0.0252983 0.000822965 0.0115136 
-0.0211672 -0.00119578 0.0115039 -0.0140644 0.000589918 0.011502 0.00995039 5.93268e-05 0.011532 
0.0598565 0.00105431 0.0114983 0.0625399 -0.00129144 0.0114983 0.0795139 -0.00173933 0.0114983 
0.0886475 -0.000566262 0.0114983 -0.0771214 0.00393991 0.0114983 -0.0626796 0.00484903 0.0114983 
-0.0546107 0.00507808 0.0114983 -0.0479458 0.00355624 0.0114983 -0.0300047 0.00317436 0.0114983 
-0.0223786 0.00220405 0.0115306 -0.0212211 0.0053084 0.0116861 -0.00867905 0.00359966 0.011498 
[...]
POINT_DATA 1053
FIELD FieldData 7
id 1 1053 int
243 397 363 208 2 4 386 189 324 
416 265 9 112 154 262 10 200 119 
526 229 137 222 393 258 406 267 252 
514 76 73 173 83 68 319 260 125 
242 498 328 50 343 290 375 108 132 
307 110 8 97 19 283 353 18 192 
591 333 458 418 75 281 90 161 101 
85 475 11 71 358 409 378 32 268 
523 487 588 202 489 152 371 179 263 
251 63 45 47 308 438 433 559 107 
425 314 240 546 214 729 525 665 218 
726 352 540 638 615 743 109 205 502 
566 139 23 598 339 626 550 524 695 
172 460 666 694 496 587 922 835 807 
476 600 935 521 120 123 821 785 603 
448 197 719 744 782 578 127 612 611 
469 784 482 292 249 211 718 947 880 
828 755 535 599 898 753 610 630 164 
693 320 760 843 830 734 72 571 809 
679 669 443 773 643 500 436 495 879 
857 677 278 340 847 854 560 305 368 
344 871 844 185 733 459 294 816 849 
798 767 681 667 366 507 25 721 818 
884 444 705 663 510 572 794 380 656 
808 793 114 153 174 84 561 527 756 
887 126 146 701 704 715 373 706 456 
820 614 346 217 64 227 36 315 795 
772 347 303 499 617 150 810 639 395 
533 288 923 861 562 585 412 651 575 
768 250 975 757 846 244 770 279 834 
574 355 538 295 201 239 501 474 893 
908 765 899 945 652 163 690 858 302 
411 257 74 226 883 976 938 592 447 
601 739 420 384 334 289 228 162 948 
745 918 564 121 703 275 484 731 931 
783 759 573 687 771 253 96 488 624 
842 625 472 817 730 637 511 869 727 
897 833 579 210 204 404 873 845 746 
616 532 860 886 742 740 522 213 369 
548 61 291 553 432 264 407 332 552 
627 293 707 781 512 360 563 545 758 
342 316 936 266 741 642 714 341 872 
485 537 766 392 586 597 136 165 819 
577 199 933 836 855 345 779 640 468 
359 497 805 296 892 280 329 86 419 
678 576 896 558 702 832 590 604 754 
791 668 230 190 732 431 680 959 565 
958 786 717 424 198 33 584 605 909 
676 589 655 133 277 178 231 674 848 
881 654 792 461 309 434 370 900 421 
547 780 894 276 692 508 549 691 331 
708 520 859 804 628 720 534 102 613 
629 471 513 140 445 716 649 675 797 
408 631 422 171 618 379 811 151 486 
435 483 641 650 769 450 330 357 457 
186 100 536 519 318 382 87 462 22 
688 870 255 354 38 238 270 551 49 
385 405 437 383 463 70 381 321 269 
317 470 304 21 327 215 747 99 664 
372 148 241 423 51 60 446 159 166 
122 212 237 399 396 187 124 177 254 
449 398 223 176 20 256 65 509 134 
39 111 149 191 57 58 203 88 98 
147 216 62 34 306 394 224 135 95 
46 301 410 138 13 7 113 26 188 
37 35 24 367 175 225 184 168 541 
529 144 261 325 167 300 634 92 285 
348 481 142 313 862 336 156 635 594 
477 464 42 494 568 365 583 528 413 
506 389 593 750 581 467 16 155 414 
452 15 595 710 518 623 439 867 129 
40 543 737 602 387 827 219 812 364 
885 248 67 157 14 787 337 953 402 
284 403 141 235 335 698 825 863 504 
29 323 442 660 877 814 723 914 417 
247 91 274 800 644 712 957 671 415 
193 970 657 962 850 170 728 801 709 
633 207 3 181 131 465 391 455 246 
927 736 376 683 997 473 902 115 686 
724 286 429 949 653 648 619 840 940 
824 361 79 94 531 996 934 912 937 
776 326 689 749 661 351 158 557 983 
670 582 913 390 946 882 517 441 362 
696 796 684 919 974 987 865 789 839 
722 311 622 831 427 838 961 672 609 
890 646 271 350 608 1005 799 960 764 
905 788 700 659 221 480 245 183 777 
829 711 27 180 803 802 505 762 895 
889 81 647 920 763 606 492 544 491 
451 232 41 195 1010 932 989 748 466 
685 971 806 298 117 66 567 813 985 
901 823 856 539 752 5 735 440 236 
145 868 751 143 963 822 1011 999 1013 
952 775 388 490 875 662 516 580 106 
555 699 645 774 570 928 738 454 17 
338 55 259 853 907 925 906 891 621 
530 607 761 673 209 542 493 636 116 
620 815 874 426 697 169 322 778 515 
287 53 220 866 377 658 430 428 103 
272 826 790 54 400 349 310 273 682 
725 478 43 556 196 128 93 554 299 
69 80 312 44 401 569 297 182 233 
234 453 194 374 56 479 503 31 130 
28 1 118 104 78 926 984 1006 1000 
632 998 930 979 903 966 995 921 851 
1015 951 978 911 973 1001 910 878 988 
713 955 596 943 986 967 992 993 965 
917 915 876 941 956 969 972 982 852 
929 944 980 964 864 1002 1007 904 837 
939 888 841 1009 968 1028 1012 1008 924 
991 950 1027 1004 977 1025 1003 942 981 
1024 1023 916 954 990 1021 1019 1026 994 
1020 1017 1014 1016 1039 1022 1018 1029 1034 
1035 1040 1038 1036 1041 1030 1033 1031 1037 
1051 1032 1046 1049 1047 1045 1053 1044 1052 
1050 1054 1043 1042 1048 1067 1065 1058 1062 
1063 1055 1061 1064 1056 1060 1066 1057 1059 

type 1 1053 int
1 1 1 1 1 1 1 1 1 
1 1 1 1 1 1 1 1 1 
1 1 1 1 1 1 1 1 1 
1 1 1 1 1 1 1 1 1 
1 1 1 1 1 1 1 1 1 
1 1 1 1 1 1 1 1 1 
1 1 1 1 1 1 1 1 1 
1 1 1 1 1 1 1 1 1 
1 1 1 1 1 1 1 1 1 
1 1 1 1 1 1 1 1 1 
1 1 1 1 1 1 1 1 1 
1 1 1 1 1 1 1 1 1 
1 1 1 1 1 1 1 1 1 
1 1 1 1 1 1 1 1 1 
1 1 1 1 1 1 1 1 1 
1 1 1 1 1 1 1 1 1 
1 1 1 1 1 1 1 1 1 
1 1 1 1 1 1 1 1 1 
1 1 1 1 1 1 1 1 1 
1 1 1 1 1 1 1 1 1 
1 1 1 1 1 1 1 1 1 
1 1 1 1 1 1 1 1 1 
1 1 1 1 1 1 1 1 1 
1 1 1 1 1 1 1 1 1 
1 1 1 1 1 1 1 1 1 
1 1 1 1 1 1 1 1 1 
1 1 1 1 1 1 1 1 1 
1 1 1 1 1 1 1 1 1 
1 1 1 1 1 1 1 1 1 
1 1 1 1 1 1 1 1 1 
1 1 1 1 1 1 1 1 1 
1 1 1 1 1 1 1 1 1 
1 1 1 1 1 1 1 1 1 
1 1 1 1 1 1 1 1 1 
1 1 1 1 1 1 1 1 1 
1 1 1 1 1 1 1 1 1 
1 1 1 1 1 1 1 1 1 
1 1 1 1 1 1 1 1 1 
1 1 1 1 1 1 1 1 1 
1 1 1 1 1 1 1 1 1 
1 1 1 1 1 1 1 1 1 
1 1 1 1 1 1 1 1 1 
1 1 1 1 1 1 1 1 1 
1 1 1 1 1 1 1 1 1 
1 1 1 1 1 1 1 1 1 
1 1 1 1 1 1 1 1 1 
1 1 1 1 1 1 1 1 1 
1 1 1 1 1 1 1 1 1 
1 1 1 1 1 1 1 1 1 
1 1 1 1 1 1 1 1 1 
1 1 1 1 1 1 1 1 1 
1 1 1 1 1 1 1 1 1 
1 1 1 1 1 1 1 1 1 
1 1 1 1 1 1 1 1 1 
1 1 1 1 1 1 1 1 1 
1 1 1 1 1 1 1 1 1 
1 1 1 1 1 1 1 1 1 
1 1 1 1 1 1 1 1 1 
1 1 1 1 1 1 1 1 1 
1 1 1 1 1 1 1 1 1 
1 1 1 1 1 1 1 1 1 
1 1 1 1 1 1 1 1 1 
1 1 1 1 1 1 1 1 1 
1 1 1 1 1 1 1 1 1 
1 1 1 1 1 1 1 1 1 
1 1 1 1 1 1 1 1 1 
1 1 1 1 1 1 1 1 1 
1 1 1 1 1 1 1 1 1 
1 1 1 1 1 1 1 1 1 
1 1 1 1 1 1 1 1 1 
1 1 1 1 1 1 1 1 1 
1 1 1 1 1 1 1 1 1 
1 1 1 1 1 1 1 1 1 
1 1 1 1 1 1 1 1 1 
1 1 1 1 1 1 1 1 1 
1 1 1 1 1 1 1 1 1 
1 1 1 1 1 1 1 1 1 
1 1 1 1 1 1 1 1 1 
1 1 1 1 1 1 1 1 1 
1 1 1 1 1 1 1 1 1 
1 1 1 1 1 1 1 1 1 
1 1 1 1 1 1 1 1 1 
1 1 1 1 1 1 1 1 1 
1 1 1 1 1 1 1 1 1 
1 1 1 1 1 1 1 1 1 
1 1 1 1 1 1 1 1 1 
1 1 1 1 1 1 1 1 1 
1 1 1 1 1 1 1 1 1 
1 1 1 1 1 1 1 1 1 
1 1 1 1 1 1 1 1 1 
1 1 1 1 1 1 1 1 1 
1 1 1 1 1 1 1 1 1 
1 1 1 1 1 1 1 1 1 
1 1 1 1 1 1 1 1 1 
1 1 1 1 1 1 1 1 1 
1 1 1 1 1 1 1 1 1 
1 1 1 1 1 1 1 1 1 
1 1 1 1 1 1 1 1 1 
1 1 1 1 1 1 1 1 1 
1 1 1 1 1 1 1 1 1 
1 1 1 1 1 1 1 1 1 
1 1 1 1 1 1 1 1 1 
1 1 1 1 1 1 1 1 1 
1 1 1 1 1 1 1 1 1 
1 1 1 1 1 1 1 1 1 
1 1 1 1 1 1 1 1 1 
1 1 1 1 1 1 1 1 1 
1 1 1 1 1 1 1 1 1 
1 1 1 1 1 1 1 1 1 
1 1 1 1 1 1 1 1 1 
1 1 1 1 1 1 1 1 1 
1 1 1 1 1 1 1 1 1 
1 1 1 1 1 1 1 1 1 
1 1 1 1 1 1 1 1 1 
1 1 1 1 1 1 1 1 1 
1 1 1 1 1 1 1 1 1 
1 1 1 1 1 1 1 1 1 

i 3 1053 int
0 0 0 0 0 0 0 0 0 
0 0 0 0 0 0 0 0 0 
0 0 0 0 0 0 0 0 0 
0 0 0 0 0 0 0 0 0 
0 0 0 0 0 0 0 0 0 
0 0 0 0 0 0 0 0 0 
0 0 0 0 0 0 0 0 0 
0 0 0 0 0 0 0 0 0 
0 0 0 0 0 0 0 0 0 
0 0 0 0 0 0 0 0 0 
0 0 0 0 0 0 0 0 0 
0 0 0 0 0 0 0 0 0 
0 0 0 0 0 0 0 0 0 
0 0 0 0 0 0 0 0 0 
0 0 0 0 0 0 0 0 0 
0 0 0 0 0 0 0 0 0 
0 0 0 0 0 0 0 0 0 
0 0 0 0 0 0 0 0 0 
0 0 0 0 0 0 0 0 0 
0 0 0 0 0 0 0 0 0 
0 0 0 0 0 0 0 0 0 
0 0 0 0 0 0 0 0 0 
0 0 0 0 0 0 0 0 0 
0 0 0 0 0 0 0 0 0 
0 0 0 0 0 0 0 0 0 
0 0 0 0 0 0 0 0 0 
0 0 0 0 0 0 0 0 0 
0 0 0 0 0 0 0 0 0 
0 0 0 0 0 0 0 0 0 
0 0 0 0 0 0 0 0 0 
0 0 0 0 0 0 0 0 0 
0 0 0 0 0 0 0 0 0 
0 0 0 0 0 0 0 0 0 
0 0 0 0 0 0 0 0 0 
0 0 0 0 0 0 0 0 0 
0 0 0 0 0 0 0 0 0 
0 0 0 0 0 0 0 0 0 
0 0 0 0 0 0 0 0 0 
0 0 0 0 0 0 0 0 0 
0 0 0 0 0 0 0 0 0 
0 0 0 0 0 0 0 0 0 
0 0 0 0 0 0 0 0 0 
0 0 0 0 0 0 0 0 0 
0 0 0 0 0 0 0 0 0 
0 0 0 0 0 0 0 0 0 
0 0 0 0 0 0 0 0 0 
0 0 0 0 0 0 0 0 0 
0 0 0 0 0 0 0 0 0 
0 0 0 0 0 0 0 0 0 
0 0 0 0 0 0 0 0 0 
0 0 0 0 0 0 0 0 0 
0 0 0 0 0 0 0 0 0 
0 0 0 0 0 0 0 0 0 
0 0 0 0 0 0 0 0 0 
0 0 0 0 0 0 0 0 0 
0 0 0 0 0 0 0 0 0 
0 0 0 0 0 0 0 0 0 
0 0 0 0 0 0 0 0 0 
0 0 0 0 0 0 0 0 0 
0 0 0 0 0 0 0 0 0 
0 0 0 0 0 0 0 0 0 
0 0 0 0 0 0 0 0 0 
0 0 0 0 0 0 0 0 0 
0 0 0 0 0 0 0 0 0 
0 0 0 0 0 0 0 0 0 
0 0 0 0 0 0 0 0 0 
0 0 0 0 0 0 0 0 0 
0 0 0 0 0 0 0 0 0 
0 0 0 0 0 0 0 0 0 
0 0 0 0 0 0 0 0 0 
0 0 0 0 0 0 0 0 0 
0 0 0 0 0 0 0 0 0 
0 0 0 0 0 0 0 0 0 
0 0 0 0 0 0 0 0 0 
0 0 0 0 0 0 0 0 0 
0 0 0 0 0 0 0 0 0 
0 0 0 0 0 0 0 0 0 
0 0 0 0 0 0 0 0 0 
0 0 0 0 0 0 0 0 0 
0 0 0 0 0 0 0 0 0 
0 0 0 0 0 0 0 0 0 
0 0 0 0 0 0 0 0 0 
0 0 0 0 0 0 0 0 0 
0 0 0 0 0 0 0 0 0 
0 0 0 0 0 0 0 0 0 
0 0 0 0 0 0 0 0 0 
0 0 0 0 0 0 0 0 0 
0 0 0 0 0 0 0 0 0 
0 0 0 0 0 0 0 0 0 
0 0 0 0 0 0 0 0 0 
0 0 0 0 0 0 0 0 0 
0 0 0 0 0 0 0 0 0 
0 0 0 0 0 0 0 0 0 
0 0 0 0 0 0 0 0 0 
0 0 0 0 0 0 0 0 0 
0 0 0 0 0 0 0 0 0 
0 0 0 0 0 0 0 0 0 
0 0 0 0 0 0 0 0 0 
0 0 0 0 0 0 0 0 0 
0 0 0 0 0 0 0 0 0 
0 0 0 0 0 0 0 0 0 
0 0 0 0 0 0 0 0 0 
0 0 0 0 0 0 0 0 0 
0 0 0 0 0 0 0 0 0 
0 0 0 0 0 0 0 0 0 
0 0 0 0 0 0 0 0 0 
0 0 0 0 0 0 0 0 0 
0 0 0 0 0 0 0 0 0 
0 0 0 0 0 0 0 0 0 
0 0 0 0 0 0 0 0 0 
0 0 0 0 0 0 0 0 0 
0 0 0 0 0 0 0 0 0 
0 0 0 0 0 0 0 0 0 
0 0 0 0 0 0 0 0 0 
0 0 0 0 0 0 0 0 0 
0 0 0 0 0 0 0 0 0 
0 0 0 0 0 0 0 0 0 
0 0 0 0 0 0 0 0 0 
0 0 0 0 0 0 0 0 0 
0 0 0 0 0 0 0 0 0 
0 0 0 0 0 0 0 0 0 
0 0 0 0 0 0 0 0 0 
0 0 0 0 0 0 0 0 0 
0 0 0 0 0 0 0 0 0 
0 0 0 0 0 0 0 0 0 
0 0 0 0 0 0 0 0 0 
0 0 0 0 0 0 0 0 0 
0 0 0 0 0 0 0 0 0 
0 0 0 0 0 0 0 0 0 
0 0 0 0 0 0 0 0 0 
0 0 0 0 0 0 0 0 0 
0 0 0 0 0 0 0 0 0 
0 0 0 0 0 0 0 0 0 
0 0 0 0 0 0 0 0 0 
0 0 0 0 0 0 0 0 0 
0 0 0 0 0 0 0 0 0 
0 0 0 0 0 0 0 0 0 
0 0 0 0 0 0 0 0 0 
0 0 0 0 0 0 0 0 0 
0 0 0 0 0 0 0 0 0 
0 0 0 0 0 0 0 0 0 
0 0 0 0 0 0 0 0 0 
0 0 0 0 0 0 0 0 0 
0 0 0 0 0 0 0 0 0 
0 0 0 0 0 0 0 0 0 
0 0 0 0 0 0 0 0 0 
0 0 0 0 0 0 0 0 0 
0 0 0 0 0 0 0 0 0 
0 0 0 0 0 0 0 0 0 
0 0 0 0 0 0 0 0 0 
0 0 0 0 0 0 0 0 0 
0 0 0 0 0 0 0 0 0 
0 0 0 0 0 0 0 0 0 
0 0 0 0 0 0 0 0 0 
0 0 0 0 0 0 0 0 0 
0 0 0 0 0 0 0 0 0 
0 0 0 0 0 0 0 0 0 
0 0 0 0 0 0 0 0 0 
0 0 0 0 0 0 0 0 0 
0 0 0 0 0 0 0 0 0 
0 0 0 0 0 0 0 0 0 
0 0 0 0 0 0 0 0 0 
0 0 0 0 0 0 0 0 0 
0 0 0 0 0 0 0 0 0 
0 0 0 0 0 0 0 0 0 
0 0 0 0 0 0 0 0 0 
0 0 0 0 0 0 0 0 0 
0 0 0 0 0 0 0 0 0 
0 0 0 0 0 0 0 0 0 
0 0 0 0 0 0 0 0 0 
0 0 0 0 0 0 0 0 0 
0 0 0 0 0 0 0 0 0 
0 0 0 0 0 0 0 0 0 
0 0 0 0 0 0 0 0 0 
0 0 0 0 0 0 0 0 0 
0 0 0 0 0 0 0 0 0 
0 0 0 0 0 0 0 0 0 
0 0 0 0 0 0 0 0 0 
0 0 0 0 0 0 0 0 0 
0 0 0 0 0 0 0 0 0 
0 0 0 0 0 0 0 0 0 
0 0 0 0 0 0 0 0 0 
0 0 0 0 0 0 0 0 0 
0 0 0 0 0 0 0 0 0 
0 0 0 0 0 0 0 0 0 
0 0 0 0 0 0 0 0 0 
0 0 0 0 0 0 0 0 0 
0 0 0 0 0 0 0 0 0 
0 0 0 0 0 0 0 0 0 
0 0 0 0 0 0 0 0 0 
0 0 0 0 0 0 0 0 0 
0 0 0 0 0 0 0 0 0 
0 0 0 0 0 0 0 0 0 
0 0 0 0 0 0 0 0 0 
0 0 0 0 0 0 0 0 0 
0 0 0 0 0 0 0 0 0 
0 0 0 0 0 0 0 0 0 
0 0 0 0 0 0 0 0 0 
0 0 0 0 0 0 0 0 0 
0 0 0 0 0 0 0 0 0 
0 0 0 0 0 0 0 0 0 
0 0 0 0 0 0 0 0 0 
0 0 0 0 0 0 0 0 0 
0 0 0 0 0 0 0 0 0 
0 0 0 0 0 0 0 0 0 
0 0 0 0 0 0 0 0 0 
0 0 0 0 0 0 0 0 0 
0 0 0 0 0 0 0 0 0 
0 0 0 0 0 0 0 0 0 
0 0 0 0 0 0 0 0 0 
0 0 0 0 0 0 0 0 0 
0 0 0 0 0 0 0 0 0 
0 0 0 0 0 0 0 0 0 
0 0 0 0 0 0 0 0 0 
0 0 0 0 0 0 0 0 0 
0 0 0 0 0 0 0 0 0 
0 0 0 0 0 0 0 0 0 
0 0 0 0 0 0 0 0 0 
0 0 0 0 0 0 0 0 0 
0 0 0 0 0 0 0 0 0 
0 0 0 0 0 0 0 0 0 
0 0 0 0 0 0 0 0 0 
0 0 0 0 0 0 0 0 0 
0 0 0 0 0 0 0 0 0 
0 0 0 0 0 0 0 0 0 
0 0 0 0 0 0 0 0 0 
0 0 0 0 0 0 0 0 0 
0 0 0 0 0 0 0 0 0 
0 0 0 0 0 0 0 0 0 
0 0 0 0 0 0 0 0 0 
0 0 0 0 0 0 0 0 0 
0 0 0 0 0 0 0 0 0 
0 0 0 0 0 0 0 0 0 
0 0 0 0 0 0 0 0 0 
0 0 0 0 0 0 0 0 0 
0 0 0 0 0 0 0 0 0 
0 0 0 0 0 0 0 0 0 
0 0 0 0 0 0 0 0 0 
0 0 0 0 0 0 0 0 0 
0 0 0 0 0 0 0 0 0 
0 0 0 0 0 0 0 0 0 
0 0 0 0 0 0 0 0 0 
0 0 0 0 0 0 0 0 0 
0 0 0 0 0 0 0 0 0 
0 0 0 0 0 0 0 0 0 
0 0 0 0 0 0 0 0 0 
0 0 0 0 0 0 0 0 0 
0 0 0 0 0 0 0 0 0 
0 0 0 0 0 0 0 0 0 
0 0 0 0 0 0 0 0 0 
0 0 0 0 0 0 0 0 0 
0 0 0 0 0 0 0 0 0 
0 0 0 0 0 0 0 0 0 
0 0 0 0 0 0 0 0 0 
0 0 0 0 0 0 0 0 0 
0 0 0 0 0 0 0 0 0 
0 0 0 0 0 0 0 0 0 
0 0 0 0 0 0 0 0 0 
0 0 0 0 0 0 0 0 0 
0 0 0 0 0 0 0 0 0 
0 0 0 0 0 0 0 0 0 
0 0 0 0 0 0 0 0 0 
0 0 0 0 0 0 0 0 0 
0 0 0 0 0 0 0 0 0 
0 0 0 0 0 0 0 0 0 
0 0 0 0 0 0 0 0 0 
0 0 0 0 0 0 0 0 0 
0 0 0 0 0 0 0 0 0 
0 0 0 0 0 0 0 0 0 
0 0 0 0 0 0 0 0 0 
0 0 0 0 0 0 0 0 0 
0 0 0 0 0 0 0 0 0 
0 0 0 0 0 0 0 0 0 
0 0 0 0 0 0 0 0 0 
0 0 0 0 0 0 0 0 0 
0 0 0 0 0 0 0 0 0 
0 0 0 0 0 0 0 0 0 
0 0 0 0 0 0 0 0 0 
0 0 0 0 0 0 0 0 0 
0 0 0 0 0 0 0 0 0 
0 0 0 0 0 0 0 0 0 
0 0 0 0 0 0 0 0 0 
0 0 0 0 0 0 0 0 0 
0 0 0 0 0 0 0 0 0 
0 0 0 0 0 0 0 0 0 
0 0 0 0 0 0 0 0 0 
0 0 0 0 0 0 0 0 0 
0 0 0 0 0 0 0 0 0 
0 0 0 0 0 0 0 0 0 
0 0 0 0 0 0 0 0 0 
0 0 0 0 0 0 0 0 0 
0 0 0 0 0 0 0 0 0 
0 0 0 0 0 0 0 0 0 
0 0 0 0 0 0 0 0 0 
0 0 0 0 0 0 0 0 0 
0 0 0 0 0 0 0 0 0 
0 0 0 0 0 0 0 0 0 
0 0 0 0 0 0 0 0 0 
0 0 0 0 0 0 0 0 0 
0 0 0 0 0 0 0 0 0 
0 0 0 0 0 0 0 0 0 
0 0 0 0 0 0 0 0 0 
0 0 0 0 0 0 0 0 0 
0 0 0 0 0 0 0 0 0 
0 0 0 0 0 0 0 0 0 
0 0 0 0 0 0 0 0 0 
0 0 0 0 0 0 0 0 0 
0 0 0 0 0 0 0 0 0 
0 0 0 0 0 0 0 0 0 
0 0 0 0 0 0 0 0 0 
0 0 0 0 0 0 0 0 0 
0 0 0 0 0 0 0 0 0 
0 0 0 0 0 0 0 0 0 
0 0 0 0 0 0 0 0 0 
0 0 0 0 0 0 0 0 0 
0 0 0 0 0 0 0 0 0 
0 0 0 0 0 0 0 0 0 
0 0 0 0 0 0 0 0 0 
0 0 0 0 0 0 0 0 0 
0 0 0 0 0 0 0 0 0 
0 0 0 0 0 0 0 0 0 
0 0 0 0 0 0 0 0 0 
0 0 0 0 0 0 0 0 0 
0 0 0 0 0 0 0 0 0 
0 0 0 0 0 0 0 0 0 
0 0 0 0 0 0 0 0 0 
0 0 0 0 0 0 0 0 0 
0 0 0 0 0 0 0 0 0 
0 0 0 0 0 0 0 0 0 
0 0 0 0 0 0 0 0 0 
0 0 0 0 0 0 0 0 0 
0 0 0 0 0 0 0 0 0 
0 0 0 0 0 0 0 0 0 
0 0 0 0 0 0 0 0 0 
0 0 0 0 0 0 0 0 0 
0 0 0 0 0 0 0 0 0 
0 0 0 0 0 0 0 0 0 
0 0 0 0 0 0 0 0 0 
0 0 0 0 0 0 0 0 0 
0 0 0 0 0 0 0 0 0 
0 0 0 0 0 0 0 0 0 
0 0 0 0 0 0 0 0 0 
0 0 0 0 0 0 0 0 0 
0 0 0 0 0 0 0 0 0 
0 0 0 0 0 0 0 0 0 
0 0 0 0 0 0 0 0 0 
0 0 0 0 0 0 0 0 0 
0 0 0 0 0 0 0 0 0 
0 0 0 0 0 0 0 0 0 
0 0 0 0 0 0 0 0 0 
0 0 0 0 0 0 0 0 0 

v 3 1053 double
-0.0723875 -0.258201 -3.10817 0.161289 -0.384775 -3.09647 0.0225701 -0.264759 -3.05394 
-0.0547895 -0.244818 -2.92454 0.059008 -0.199292 -2.29804 -0.073182 -0.185656 -2.2255 
-0.0104286 -0.398357 -1.99916 0.17727 -0.259586 -1.97206 0.00338133 -0.202314 -1.96828 
-0.00751726 -0.291374 -1.96229 0.0727492 -0.191094 -1.88858 0.000932047 -0.185507 -1.84482 
0.00525555 -0.179237 -1.78865 -0.0295349 -0.217813 -1.77516 -0.020506 -0.195886 -1.66337 
0.0664469 -0.176129 -1.58512 0.190098 -0.180191 -1.56551 -0.0499472 -0.156625 -1.55038 
-0.0166739 -0.315829 -1.51249 -0.0885939 -0.164217 -1.43194 0.0191592 -0.165968 -1.42459 
0.0315197 -0.158784 -1.41903 0.076366 -0.155137 -1.41182 -0.0972053 -0.167425 -1.29186 
-0.0765058 -0.242214 -1.12738 -0.0714214 -0.178438 -1.1132 -0.116153 -0.146507 -1.07498 
-0.00766658 -0.226757 -0.89314 0.038162 -0.177553 -0.84584 -0.0586615 -0.124371 -0.858553 
0.0413018 -0.144672 -0.803254 -0.0125736 -0.123743 -0.598344 0.0287728 -0.141615 -0.661336 
0.126354 -0.162996 -0.443541 0.0751019 -0.166385 -0.418301 -0.00169053 -0.13947 -0.414689 
-0.145934 -0.170018 -0.292182 -0.0362661 -0.183518 -0.321157 0.0429247 -0.142061 -0.360233 
0.115409 -0.129555 -0.345062 0.0120231 -0.078786 -0.274364 -0.110333 -0.180511 -0.0798547 
-0.0193264 -0.136528 -0.175901 -0.0252108 -0.126062 -0.246964 0.0986936 -0.136895 -0.130839 
-0.0476116 -0.143061 -7.01345e-14 0.0242316 -0.124981 -1.48241e-14 -0.0340352 -0.109678 -5.43325e-14 
0.0749032 -0.13184 7.20901e-14 -0.011223 -0.0951381 5.62866e-14 0.076742 -0.0639368 -3.06269e-14 
0.030955 -0.109441 -6.21975e-14 -0.0546401 -0.0989205 9.77824e-16 0.0109714 -0.124992 -4.64296e-14 
-0.00795638 -0.00550001 7.99923e-14 0.00174516 -0.123609 -6.22331e-14 0.00656257 -0.125271 1.67805e-14 
0.0489767 -0.134619 -8.59372e-14 0.0193322 -0.0994086 7.20901e-14 -0.0854144 -0.108063 6.41895e-14 
-0.0182229 -0.0836891 -3.85298e-14 0.00210227 -0.0996632 -6.22331e-14 0.0119532 -0.15027 2.46827e-14 
-0.0277227 -0.0800309 -3.85298e-14 0.0143897 -0.149513 -3.06277e-14 0.0819189 -0.0980738 -7.80359e-14 
-0.042305 -0.0953114 0.00652045 -0.00975951 -0.0948993 0.0412744 -0.0773522 -0.0809323 -2.27263e-14 
-0.0475828 -0.0994101 -1.55919e-10 -0.0668285 -0.0977167 7.99923e-14 -0.0515001 -0.0874587 5.62866e-14 
-0.0237581 0.145115 0.160171 -0.00783765 -0.135264 9.77825e-16 0.0318518 -0.116091 -5.43325e-14 
-0.0840832 -0.0749088 1.67805e-14 -0.124579 -0.0934564 -5.70027e-10 -0.0956537 -0.102347 -7.80359e-14 
-0.0495376 -0.1197 -5.01954e-13 -0.0743771 -0.0716624 -0.00458005 0.0305597 -0.126481 9.78598e-16 
0.0528025 -0.0461127 -7.01337e-14 0.110911 -0.113573 7.99923e-14 -0.0440434 -0.0785489 -2.17663e-05 
-0.0114393 -0.0254059 0.00161462 -0.0360523 -0.145602 -3.85298e-14 0.0139567 -0.0998245 -4.64296e-14 
-0.00735182 -0.0822175 -8.59372e-14 0.0341431 -0.122185 4.04847e-14 0.0152776 -0.0293671 -0.00604579 
-0.0677278 -0.0574202 7.99923e-14 -0.0879254 -0.0759984 -2.43935e-09 -0.0627363 -0.0758546 -3.06277e-14 
-0.00422115 -0.0905514 -1.35156e-14 0.00170677 -0.0902862 -6.92355e-15 -0.00480597 -0.0774687 1.64373e-13 
0.0599066 -0.113818 -2.27271e-14 -0.0635019 -0.0689226 9.12079e-08 -0.0464171 -0.0530467 -7.01337e-14 
-0.0233147 -0.119387 -7.80351e-14 -0.0109357 -0.0812788 9.77811e-16 0.0216798 -0.0641926 7.99915e-14 
-0.0186199 -0.0594041 -5.43325e-14 0.0229692 -0.107342 -0.00421268 -0.0564 -0.0850175 0.0149441 
0.0619983 -0.124496 -2.27271e-14 -0.0112954 -0.0708778 -2.4663e-06 -0.102855 -0.0665314 -6.92277e-15 
0.0194543 -0.0892879 8.87918e-15 0.0443811 -0.116464 -1.48249e-14 -0.0112688 -0.00562637 5.62887e-14 
-0.232743 -0.0737716 -4.64296e-14 0.00699268 -0.0939098 -6.22323e-14 0.0571637 -0.139142 3.25833e-14 
0.0524033 -0.114846 -3.85511e-14 0.143843 -0.149877 -3.34339e-10 -0.0856852 -0.0394081 -6.92355e-15 
-0.0182174 -0.0937142 7.99915e-14 -0.0108441 -0.0578624 5.13392e-06 -0.0322139 -0.0266674 -3.01547e-14 
-0.0512459 -0.0333237 -0.0049978 0.0204561 -0.0884117 1.67798e-14 0.0380624 -0.0857055 -7.01345e-14 
0.144405 -0.169911 -4.77641e-06 -0.00735183 -0.0693199 -0.000120253 0.260623 -0.141423 -0.052254 
-0.100222 -0.0707408 -4.64288e-14 -0.136591 -0.0449058 -3.8529e-14 -0.12512 -0.0327006 -0.0128891 
-0.0198821 -0.0131954 -0.00103024 -0.0502504 -0.0814542 0.00932476 0.0416211 -0.0801792 1.25284e-08 
0.0220025 -0.0761489 -3.91376e-12 0.0649851 -0.133404 -3.85307e-14 0.0662235 -0.117322 4.83866e-14 
0.0358509 -0.0522019 7.20901e-14 0.0284356 -0.0222539 -4.64288e-14 -0.116454 -0.0538019 5.62874e-14 
0.0262513 -0.116966 -7.01337e-14 -0.0295523 -0.0433416 9.77815e-16 -0.0980635 -0.042197 0.0493005 
0.0342673 -0.024455 0.000728576 0.0417532 -0.0537732 3.47641e-14 0.0745412 -0.00820377 -0.0217463 
-0.00887212 -0.0870913 -6.7135e-09 0.104534 -0.106414 -4.69472e-05 0.0968225 -0.0631003 -5.43325e-14 
0.0890246 -0.00556831 -7.80359e-14 0.0580854 -0.0206729 -3.91966e-08 -0.0095702 -0.0266322 -3.06276e-14 
-0.0461885 -0.0109912 -8.59364e-14 0.0479113 -0.123117 -0.221416 -0.0577727 -0.0639961 -7.65475e-05 
-0.00329674 -0.186534 -0.142672 0.0722895 -0.0859549 0.00148114 -0.103352 -0.0110347 0.0202957 
0.128587 -0.0790258 0.00626862 0.0170034 -0.211485 0.0448006 0.164714 -0.0558603 -6.21101e-05 
0.144014 -0.0581768 6.41895e-14 0.148523 -0.0755236 7.20909e-14 0.0771707 -0.0029603 0.00023479 
-0.120537 0.11456 -1.48249e-14 -0.055492 -0.00647509 6.41895e-14 -0.0374548 -0.0510787 -0.000144946 
-0.059726 -0.0399843 -0.00689689 -0.0188983 -0.0530573 -0.0260306 0.00538096 -0.0611379 2.19156e-05 
0.0628864 -0.157386 -0.0179802 0.0193026 -0.134295 -0.0154095 0.0245739 -0.140082 0.0219821 
0.0643079 -0.023111 -5.4102e-14 0.0608424 -0.0434912 4.83852e-14 0.126316 -0.075525 7.20901e-14 
0.0971905 -0.0955523 5.34251e-08 0.101083 -0.152661 -1.48249e-14 0.140123 -0.0798773 1.67798e-14 
-0.0256937 -0.0372021 -5.33667e-11 -0.0740576 -0.0165295 2.70224e-05 -0.0499325 -0.0421231 4.5282e-10 
0.0271289 -0.0328464 -0.00243596 0.0551046 -0.0959226 0.00224489 0.0609596 0.0357387 0.00334507 
0.0781724 -0.096627 1.04659e-10 0.0806168 -0.0362165 7.13591e-12 0.104148 -0.0740367 -6.92355e-15 
0.0886575 -0.0488212 -9.791e-11 0.0826052 -0.0626802 -5.43325e-14 -0.11584 -0.00639306 -7.80359e-14 
-0.0717492 -0.0273378 -6.92277e-15 -0.0710766 -0.143231 4.8386e-14 -0.045327 -0.147457 -0.0350564 
0.00109694 -0.0410127 -4.07713e-05 0.0373205 -0.0595711 0.000467681 0.0637029 -0.0109615 -0.0015571 
0.00886123 -0.0520122 2.28624e-05 0.101268 -0.0235554 -9.96257e-12 0.0798781 -0.0564514 -0.00307258 
0.0956516 -0.0656507 -4.91476e-13 0.0949059 -0.115286 -7.80359e-14 0.103138 -0.0671287 -6.92277e-15 
0.0778999 -0.03895 -3.85298e-14 0.0824927 -0.0500441 7.20909e-14 0.0219657 0.021042 5.62874e-14 