# vtk DataFile Version 4.0
Generated by LIGGGHTS
ASCII
DATASET POLYDATA
POINTS 514 float
-0.0570036 -0.169531 -0.0920468 -0.0464861 -0.101281 0.0115408 -0.0438946 -0.104084 0.0108123 
-0.0187004 -0.103679 0.0109983 -0.0185723 -0.0921732 0.0114983 0.0889753 -0.0900317 0.0114983 
-0.0325365 -0.0875379 0.0114983 0.0465507 -0.0838445 0.0114983 0.0123785 -0.0782912 0.0114983 
0.00848388 -0.0745624 0.0114983 -0.0139587 -0.0707553 0.0114983 -0.072506 -0.0559904 0.0114983 
-0.0598142 -0.0567123 0.0114983 -0.0154574 -0.0574169 0.0114983 0.0123342 -0.0572728 0.0114983 
0.0250476 -0.0562616 0.0117015 0.0381921 -0.0565323 0.0114983 -0.0722892 -0.0523896 0.0114988 
-0.0443992 -0.0533304 0.0114983 -0.030618 -0.0533578 0.0114983 -0.0179257 -0.0543536 0.0114983 
0.0195354 -0.0519607 0.0114983 0.0527061 -0.0506576 0.0114983 -0.0869548 -0.0464778 0.0114983 
-0.044781 -0.0469848 0.0114787 -0.0173364 -0.0456935 0.0114983 0.00273566 -0.0451756 0.0114983 
0.0117536 -0.0472409 0.0114983 0.022696 -0.0461701 0.0114983 0.0281944 -0.0455408 0.0114951 
-0.0161377 -0.0420289 0.0114988 -0.0126519 -0.0439784 0.0114983 0.00627884 -0.04235 0.0114983 
0.0220122 -0.0431378 0.0117103 0.0256474 -0.0438208 0.0120621 -0.0797178 -0.0390706 0.0114983 
-0.0211876 -0.0372734 0.0114983 -0.0126929 -0.0385765 0.0114983 -0.0100661 -0.0404153 0.0114983 
0.0183881 -0.039928 0.0114983 0.0204151 -0.037251 0.0116324 0.0288533 -0.040514 0.0114901 
0.0327267 -0.0386015 0.0114983 0.0370718 -0.0379685 0.0114983 -0.0750267 -0.0364842 0.0114983 
-0.0699092 -0.0362408 0.0114983 -0.0532844 -0.0368964 0.0114983 -0.0330943 -0.0354481 0.0114983 
-0.0242548 -0.0357564 0.0116329 -0.0266936 -0.0337008 0.0116234 -0.0194716 -0.0337018 0.0114983 
0.00277287 -0.036734 0.0114983 0.0459317 -0.0369477 0.0114983 0.0795936 -0.0347771 0.0114983 
-0.0330909 -0.0313065 0.0114983 -0.0190312 -0.0304958 0.0114978 0.00328957 -0.0314502 0.0115018 
0.0174237 -0.0335263 0.0114983 -0.0170353 -0.0282579 0.0114991 -0.0144308 -0.0297467 0.0114983 
-0.00654772 -0.0287292 0.0114984 0.0607696 -0.0286185 0.0114983 -0.0130364 -0.024591 0.0114983 
0.00119492 -0.0236183 0.0115308 0.0410937 -0.0258269 0.0114983 -0.0317653 -0.0217778 0.0114937 
-0.0118198 -0.0198158 0.0114983 -0.00793299 -0.0194199 0.0115538 0.0240804 -0.0199739 0.0115213 
0.0301803 -0.0220952 0.0114984 0.0404337 -0.0202433 0.011491 -0.0299261 -0.0167472 0.0114983 
-0.0191907 -0.0193285 0.011547 -0.0165759 -0.0177125 0.0121986 -0.0124176 -0.0163043 0.0115034 
-0.0060336 -0.0163089 0.0114985 0.00110761 -0.0188719 0.0114983 0.0074061 -0.0176913 0.0114983 
0.0112826 -0.0170136 0.0114983 0.0174406 -0.0191785 0.0115584 0.0442137 -0.0158445 0.0114983 
-0.0446521 -0.0154614 0.0114983 -0.0345073 -0.0153614 0.0114982 -0.0275842 -0.0127489 0.011497 
-0.0251879 -0.0155918 0.0114983 -0.00972875 -0.0138853 0.0114406 0.0327771 -0.0124852 0.011691 
-0.0494543 -0.00920985 0.0114983 -0.0464376 -0.00928997 0.0114983 -0.0117985 -0.0116826 0.0114772 
-0.00132064 -0.0103625 0.0114942 0.00595642 -0.00914361 0.0114983 0.0196061 -0.0109955 0.011498 
0.0238136 -0.00959423 0.0116483 -0.0435941 -0.00786549 0.0114983 -0.0235074 -0.00741385 0.0114979 
-0.00255129 -0.00680689 0.0115973 0.000304802 -0.00773553 0.0114995 0.00386041 -0.00692611 0.0116976 
0.00673561 -0.00598666 0.0114998 0.0159179 -0.00640244 0.0114983 0.0365269 -0.00817635 0.0114983 
-0.0532431 -0.00282871 0.0114983 -0.0498223 -0.00228657 0.0114983 -0.0416703 -0.00292445 0.0114983 
-0.0318015 -0.00238574 0.0114983 -0.0213779 -0.00280066 0.0114983 -0.0182676 -0.00501184 0.0121084 
-0.0135106 -0.00335474 0.0116058 -0.0107874 -0.00199298 0.0114984 -0.00784617 -0.00259342 0.0115293 
-0.00588661 -0.00477818 0.012224 -0.00279277 -0.00294988 0.0115018 0.0113781 -0.00417884 0.0114983 
0.0302484 -0.00217696 0.011938 -0.0404749 0.000683964 0.0114983 0.000240054 -0.000515137 0.01149 
0.0190339 0.000848368 0.0114981 0.0444573 0.000813308 0.0114983 -0.0919136 0.00384444 0.0114983 
-0.0272791 0.00204792 0.0115004 -0.0257139 0.00489066 0.0114983 0.000728394 0.00243933 0.0114978 
-0.000448594 0.00520732 0.0114984 0.0283269 0.00439846 0.0115337 0.0325675 0.00489227 0.0115213 
-0.034645 0.00610157 0.0114983 -0.00896705 0.00776274 0.0116395 0.00380907 0.00646175 0.0114983 
0.00710818 0.00703043 0.0114983 0.0141329 0.0073646 0.0114962 0.0188572 0.00694105 0.0114598 
-0.0577877 0.00914401 0.0114983 -0.0399198 0.00913356 0.0114983 -0.0372428 0.0110254 0.0115067 
-0.0208857 0.00937628 0.0115015 -0.011015 0.00999202 0.0115024 0.0119567 0.00993649 0.0115556 
0.0290754 0.00892774 0.0114983 -0.0734829 0.013662 0.0114983 -0.0514318 0.0143113 0.0114983 
-0.011888 0.0154096 0.0114855 -0.00607636 0.0124009 0.0116364 -0.00612968 0.0154719 0.0115114 
-0.00274971 0.0126817 0.0114953 0.00239084 0.0127638 0.0114975 0.00938031 0.015002 0.0117027 
0.0372598 0.012647 0.0114983 -0.0814544 0.0187497 0.0114983 -0.0561907 0.0172464 0.0114983 
-0.0307013 0.0193219 0.0117901 -0.0276539 0.0189339 0.0115247 -0.0181069 0.0186122 0.0115129 
-0.0035136 0.017034 0.0114967 0.00177832 0.017109 0.0114983 0.0156786 0.0175449 0.0116785 
0.0197474 0.017877 0.0115503 0.0257693 0.0184816 0.0114983 0.0278584 0.0162209 0.0114983 
0.0287501 0.0192047 0.0114983 -0.086514 0.0225981 0.0114983 -0.0838137 0.0207667 0.0114983 
-0.0305998 0.0224316 0.0114982 -0.0198294 0.0217202 0.0115544 -0.013686 0.0195965 0.0114983 
-0.00575227 0.0205623 0.0114983 0.0130022 0.0224811 0.0114634 0.0186757 0.0223608 0.0115025 
0.0495203 0.0210066 0.0114983 -0.0836235 0.0258331 0.0114983 -0.0356264 0.0255485 0.0114983 
-0.03364 0.0232905 0.0114983 -0.0246336 0.026291 0.0116302 -0.0165444 0.0258683 0.0115156 
-0.00802926 0.0239892 0.0115283 0.0126642 0.0256341 0.0114981 0.0279024 0.0262422 0.0114983 
0.0309235 0.0263423 0.0114983 -0.00885053 0.0270956 0.011498 -0.000297494 0.0270043 0.0123409 
0.016644 0.0290701 0.0115792 0.0343859 0.0266777 0.0114983 -0.0288322 0.0318321 0.0114983 
-0.0158538 0.0310171 0.0116127 -0.00871089 0.0302127 0.0115085 0.00290932 0.0303903 0.0114982 
0.0253642 0.0313729 0.0115436 -0.0781329 0.0345768 0.0114983 -0.0369649 0.0350895 0.0114983 
-0.016935 0.0338804 0.0115074 0.0294077 0.0341777 0.0114983 0.0317357 0.0370737 0.0114983 
0.0433519 0.0369614 0.0114983 -0.022888 0.0392575 0.0114983 0.00729681 0.0385185 0.0114984 
0.0113383 0.039098 0.0114983 0.0145089 0.03823 0.0114983 0.0378876 0.0383118 0.0114983 
-0.0128101 0.0413354 0.0114983 -0.0102259 0.0440113 0.0114983 0.0078163 0.0417484 0.0114983 
0.0417123 0.0407209 0.0114983 0.0700875 0.0408673 0.0114983 -0.0249888 0.0472167 0.0114983 
0.00259899 0.0456026 0.0114985 0.00589353 0.0445791 0.0114983 0.0384077 0.0451875 0.0114983 
0.0596092 0.0476503 0.0114983 -0.0896029 0.0479825 0.0114983 -0.0348261 0.0482515 0.0119048 
0.00331031 0.0485856 0.0114983 0.00779233 0.0492403 0.0114983 0.0226656 0.049856 0.0114983 
0.069997 0.0491722 0.0114983 -0.035725 0.0514085 0.0114984 0.0688877 0.0570284 0.0114983 
0.0737856 0.0580024 0.0114983 -0.00325268 0.0582571 0.0114983 0.00831142 0.0609624 0.0114983 
-0.0766487 0.0646096 0.0114983 -0.0315911 0.0626098 0.0114983 0.0303978 0.0630907 0.0114983 
0.0561162 0.0658357 0.0114983 0.0112508 0.0699502 0.0114983 0.00217693 0.0742555 0.0114983 
-0.0154944 0.0788846 0.0114983 -0.0960399 0.0816098 0.0115268 0.0176572 0.0795102 0.0114982 
0.018207 0.0828643 0.0114983 0.0898046 0.0829615 0.0114983 0.0460658 0.0890564 0.0114983 
0.0959058 0.0904856 0.0116377 -0.012435 -0.0941048 0.0124961 0.0410603 -0.0866349 0.0124961 
0.00300819 -0.0809912 0.0124961 0.0883208 -0.0672889 0.0124961 -0.0375302 -0.0623032 0.0124961 
0.0251287 -0.0610002 0.012496 -0.0112924 -0.0574333 0.0124961 0.0264025 -0.0565925 0.0159038 
-0.0264751 -0.0539499 0.0124995 -0.0156532 -0.051099 0.0124961 0.00353287 -0.0523707 0.0124961 
-0.0328316 -0.050079 0.0124961 0.00728808 -0.0488132 0.0124961 -0.0250194 -0.047679 0.0124961 
-0.00135208 -0.0457542 0.0124961 -0.0475213 -0.0424424 0.0124961 -0.0249015 -0.0417888 0.0139517 
-0.0200814 -0.0418602 0.0124961 -0.0166838 -0.0381909 0.0124946 0.0265218 -0.040714 0.0147211 
0.0410664 -0.0383424 0.0124961 -0.0912291 -0.0344131 0.0124961 -0.0800624 -0.0349832 0.0124961 
-0.0142266 -0.0336144 0.0124961 -0.00567845 -0.0357839 0.0124961 0.0288736 -0.0358493 0.0124961 
-0.0257677 -0.0329232 0.0150734 -0.0234332 -0.0309489 0.0124954 0.0810504 -0.0310467 0.0124961 
-0.0855371 -0.0273868 0.0124961 -0.0277019 -0.0285816 0.0147244 0.00195787 -0.0278797 0.0127355 
0.0116495 -0.0297314 0.0124953 0.0206531 -0.0279849 0.012814 0.0305117 -0.0279702 0.0126753 
-0.0364834 -0.0248178 0.0124961 -0.0171968 -0.0232611 0.0124946 0.0280017 -0.0244461 0.0128528 
0.0368989 -0.0255949 0.0124961 -0.049848 -0.0215924 0.0124961 -0.0214879 -0.0213716 0.0125091 
-0.00118016 -0.0224114 0.0145958 0.00476559 -0.0212158 0.0124961 0.0177563 -0.0221338 0.0132248 
-0.0155018 -0.0202086 0.014337 0.00388836 -0.0160351 0.0125041 0.027338 -0.0169387 0.0124961 
0.0379786 -0.0172608 0.0124977 0.0567276 -0.0190351 0.0124961 -0.0153975 -0.0133141 0.0124896 
-0.0111241 -0.0132547 0.0150676 -0.00614189 -0.0124036 0.0125037 -0.00217252 -0.015558 0.0125317 
-0.002785 -0.0130098 0.0156416 0.0189596 -0.0150483 0.0124957 -0.0331481 -0.0116802 0.0124969 
-0.0174903 -0.00945875 0.0148743 -0.00285551 -0.00904266 0.0149375 0.00293512 -0.0105258 0.013453 
0.00778118 -0.0117707 0.0119536 0.00835271 -0.00980236 0.015889 0.0163725 -0.00984439 0.0150196 
0.0284625 -0.0119297 0.0124961 0.0399743 -0.0110348 0.0124961 0.0499938 -0.0120399 0.0124961 
-0.0372463 -0.00627182 0.0124961 -0.0284885 -0.00788717 0.0126972 -0.0221459 -0.0072211 0.0141734 
-0.0104133 -0.00798105 0.0127004 0.00423132 -0.0079334 0.0152166 0.0101349 -0.00783572 0.0125419 
0.0200769 -0.00705192 0.0131534 -0.000312434 -0.00444303 0.0143606 0.00794301 -0.00229741 0.0124878 
0.0130865 -0.00516255 0.0137582 0.0223606 -0.00262487 0.0125477 0.0269567 -0.00350555 0.0148397 
0.0334548 -0.00483674 0.0124961 0.0418093 -0.00214762 0.0124961 0.0940215 -0.00446311 0.012607 
-0.0644329 -0.00148678 0.0124961 -0.0286231 -0.00157613 0.0150137 -0.0164526 -0.000191849 0.0126758 
-0.00871776 -0.000119953 0.0130835 -0.00404296 0.000746378 0.0124962 -0.000484935 -0.000433165 0.0143932 
0.00481441 0.00176212 0.012496 0.00935231 0.00134311 0.0135166 0.0138934 -0.00107233 0.0124961 
0.0203253 0.000552493 0.0141887 -0.0632778 0.00359164 0.0129743 -0.0312934 0.00204515 0.0124961 
-0.0212138 0.00273038 0.0126114 -0.0164243 0.00510653 0.0124962 -0.0118524 0.00472509 0.0148662 
-0.00855914 0.0038488 0.0124949 -0.000415583 0.00426162 0.0145196 0.0113859 0.00464958 0.0125343 
0.0171209 0.00352858 0.013796 -0.0921065 0.008083 0.0124965 -0.0461511 0.00810137 0.0124961 
-0.0198291 0.00709925 0.0131408 -0.0119993 0.00761728 0.0130724 -0.00770024 0.00869208 0.0153345 
-0.00397665 0.00689194 0.0124926 0.0241851 0.00657752 0.0125041 0.0273049 0.00586368 0.0149938 
-0.0235966 0.0121235 0.0125615 -0.0153232 0.0103438 0.0137367 -0.0116236 0.00947272 0.0156358 
0.000794037 0.00917028 0.0124961 0.0075707 0.00958872 0.0151487 0.0166995 0.0086616 0.0142894 
0.0205722 0.0118927 0.0124961 0.0245784 0.0119965 0.0162287 0.0329994 0.0110832 0.0124961 
0.0372971 0.00949723 0.0155333 0.0438761 0.00905474 0.0125067 -0.0929441 0.0137829 0.0124961 
-0.0408242 0.015593 0.0124914 -0.0339939 0.0137085 0.0125007 -0.0270663 0.0132433 0.0152018 
-0.0147168 0.0145499 0.0130183 -0.0123128 0.0125637 0.0123329 -0.011454 0.0149593 0.0143943 
-0.00743564 0.0136834 0.0155024 -0.00216546 0.0157912 0.013861 7.51305e-05 0.0139254 0.0130632 
0.0046603 0.0141507 0.0129042 0.0138705 0.0140078 0.0141109 0.0607106 0.0155231 0.0124961 
-0.0483192 0.0171825 0.0124961 -0.00938036 0.0183604 0.0124993 0.00890062 0.0189755 0.0125873 
0.0125619 0.0181408 0.0139682 0.0186429 0.0153719 0.0127716 0.0231356 0.0171739 0.0142562 
-0.0403698 0.0222317 0.0124961 -0.0334757 0.0216206 0.0148604 -0.0243683 0.0212274 0.0122484 
-0.00453422 0.0204327 0.0153401 -0.00177498 0.0209894 0.0124974 0.00359774 0.0218714 0.0148653 
0.00611945 0.0228334 0.0131983 0.0117599 0.0228696 0.0152052 0.0172321 0.0202941 0.014614 
0.0339918 0.0211101 0.0124961 -0.0247607 0.0265917 0.0156251 -0.00471662 0.0263274 0.0124961 
0.00099078 0.0237347 0.0150238 0.0186021 0.0261908 0.0139865 0.0247565 0.023453 0.0122015 
-0.030379 0.0272978 0.0124961 -0.0251466 0.0294645 0.0125313 -0.0165728 0.0292242 0.014214 
-0.0127078 0.0267593 0.0124963 0.00543999 0.0267116 0.0126067 0.0527326 0.0272966 0.0124961 
-0.0599941 0.0332802 0.0124961 -0.010456 0.0336396 0.0119649 -0.00582443 0.0330932 0.0124961 
-0.0159279 0.0356366 0.0137521 -0.000828232 0.0334036 0.0124961 0.00799505 0.0338592 0.0126097 
0.045768 0.033831 0.0124961 -0.0822977 0.0398954 0.0124961 -0.0612193 0.0397832 0.0124961 
0.0209658 0.0392049 0.0124961 0.0481981 0.0429132 0.0126915 -0.00689745 0.0472147 0.0124961 
0.0105803 0.0448865 0.0124961 -0.0144048 0.047787 0.0124961 0.0093353 0.0536927 0.0124961 
0.014244 0.0519398 0.0124961 -0.0124402 0.0566084 0.0124961 0.019943 0.0617953 0.0124961 
-0.0111135 0.0772899 0.0124961 0.0544905 0.0767765 0.0124961 0.00284519 0.0913881 0.0124961 
0.0153772 -0.053432 0.0176369 0.0245179 -0.0501272 0.0181446 -0.0195911 -0.0367106 0.0162797 
0.00582916 -0.0276676 0.0144887 -0.0251977 -0.0259759 0.0168579 0.00118635 -0.0247348 0.0173025 
-0.02593 -0.0194465 0.0183774 -0.0111787 -0.0219848 0.0181438 0.00653173 -0.0212216 0.0167423 
-0.0202492 -0.0171399 0.018096 -0.0129078 -0.0173808 0.017142 -0.00523073 -0.0184168 0.0176905 
0.011399 -0.0175782 0.0173338 0.00630633 -0.0142115 0.0176549 0.0339164 -0.0141885 0.017739 
0.0309061 -0.0100333 0.015751 -0.0273399 -0.00819868 0.0186647 -0.00439887 -0.00706452 0.0194888 
-0.0153452 -0.00293082 0.0178722 -0.00841828 -0.00362727 0.0163786 0.0103808 -0.00401995 0.0157837 
0.0146745 -0.00325941 0.0171488 0.00642712 -0.000313693 0.0161652 -0.00735677 0.00215768 0.01704 
-0.00152465 0.00186916 0.0160263 0.0118978 0.00314032 0.0173271 0.0243601 0.00330528 0.0162738 
-0.0197726 0.00546975 0.0188965 0.0301256 0.00704319 0.0158447 -0.00676179 0.0121761 0.0192975 
-0.00242664 0.0116454 0.0166816 0.0130289 0.0100574 0.0179569 -0.0240804 0.0136611 0.0169777 
-0.0391317 0.0187757 0.0159469 -0.0159337 0.0183292 0.0162284 -0.0303809 0.0232311 0.0162484 
0.02977 0.0249155 0.0180899 0.00124218 -0.023632 0.0206314 0.000841939 -0.0121209 0.0201879 
-0.0108205 -0.00732779 0.017486 0.00305463 -0.00836169 0.0232086 -0.0126591 -0.00135998 0.0208361 
0.0206495 0.00116095 0.0219397 0.0212981 0.00487998 0.0194332 0.00647596 0.014597 0.0185064 
-0.00806103 0.0181794 0.0179675 0.0394044 0.0227054 0.0187777 -0.0182537 0.025116 0.0194357 
-0.0256195 0.0314138 0.021247 0.00790258 0.0310019 0.0204596 -0.0143002 -0.0789273 0.0224206 
0.0309306 -0.0334664 0.0250821 -0.00392234 -0.00373347 0.0225151 0.011341 -0.00509542 0.0210022 
-0.0133441 0.00319786 0.0207832 -0.00477123 0.00652676 0.0221508 0.0212936 0.0060923 0.0229437 
-0.0212965 0.0145291 0.0214843 -0.0209814 -0.0177648 0.0265065 -0.0330769 -0.00581727 0.0264468 
0.0239506 -0.00742703 0.0263591 -0.0101191 -0.00144891 0.0241295 -0.00509843 0.00279714 0.0265983 
0.0162964 0.00343406 0.0307597 -8.96668e-05 0.0234069 0.0307595 -0.0185965 -0.0246742 0.0343348 
0.0203806 -0.017902 0.0336307 0.022996 -0.00683804 0.0345053 0.0473956 -0.00269238 0.0340904 
-0.00181592 0.0310938 0.0339503 0.0144829 -0.0170418 0.0359346 -0.000390951 -0.0141126 0.034776 
-0.0131643 -0.0020391 0.0373446 -0.0053231 0.00157903 0.0364125 0.00703917 0.00645606 0.0378421 
0.00323692 0.0172371 0.0359393 -0.0102492 0.0224424 0.0345606 -0.0140088 -0.0108091 0.0411088 
0.0199403 0.011776 0.0410597 -0.014784 -0.0225726 0.044804 0.00104815 -0.020109 0.0445509 
0.00432445 0.00720261 0.0444852 -0.0107079 -0.00740167 0.0471993 0.0245413 -0.00780779 0.0479636 
-0.0113711 0.012747 0.0482563 0.0238774 -0.0219359 0.0519643 -0.0153552 -0.00702052 0.0491876 
-0.0135467 -0.00269491 0.050342 0.0113704 -0.00023137 0.0489923 0.0126241 0.00604883 0.0488578 
-0.0243609 0.00890399 0.0502709 0.00332618 0.0146965 0.0504629 0.0071364 -0.00976121 0.0548403 
-0.0110329 0.0192651 0.0554279 0.0118713 0.0178742 0.0552839 0.0116687 -0.0145788 0.0578822 
0.0170211 -0.0111313 0.0585398 -0.00763939 -0.00374701 0.0589134 -0.0106592 0.00639719 0.0565599 
0.00408652 0.00866628 0.0580754 0.019848 0.0144356 0.0567866 0.0134249 -0.0202378 0.0594997 
0.00558312 0.0122542 0.0608065 
VERTICES 514 1028
1 0 
1 1 
1 2 
1 3 
1 4 
1 5 
1 6 
1 7 
1 8 
1 9 
1 10 
1 11 
1 12 
1 13 
1 14 
1 15 
1 16 
1 17 
1 18 
1 19 
1 20 
1 21 
1 22 
1 23 
1 24 
1 25 
1 26 
1 27 
1 28 
1 29 
1 30 
1 31 
1 32 
1 33 
1 34 
1 35 
1 36 
1 37 
1 38 
1 39 
1 40 
1 41 
1 42 
1 43 
1 44 
1 45 
1 46 
1 47 
1 48 
1 49 
1 50 
1 51 
1 52 
1 53 
1 54 
1 55 
1 56 
1 57 
1 58 
1 59 
1 60 
1 61 
1 62 
1 63 
1 64 
1 65 
1 66 
1 67 
1 68 
1 69 
1 70 
1 71 
1 72 
1 73 
1 74 
1 75 
1 76 
1 77 
1 78 
1 79 
1 80 
1 81 
1 82 
1 83 
1 84 
1 85 
1 86 
1 87 
1 88 
1 89 
1 90 
1 91 
1 92 
1 93 
1 94 
1 95 
1 96 
1 97 
1 98 
1 99 
1 100 
1 101 
1 102 
1 103 
1 104 
1 105 
1 106 
1 107 
1 108 
1 109 
1 110 
1 111 
1 112 
1 113 
1 114 
1 115 
1 116 
1 117 
1 118 
1 119 
1 120 
1 121 
1 122 
1 123 
1 124 
1 125 
1 126 
1 127 
1 128 
1 129 
1 130 
1 131 
1 132 
1 133 
1 134 
1 135 
1 136 
1 137 
1 138 
1 139 
1 140 
1 141 
1 142 
1 143 
1 144 
1 145 
1 146 
1 147 
1 148 
1 149 
1 150 
1 151 
1 152 
1 153 
1 154 
1 155 
1 156 
1 157 
1 158 
1 159 
1 160 
1 161 
1 162 
1 163 
1 164 
1 165 
1 166 
1 167 
1 168 
1 169 
1 170 
1 171 
1 172 
1 173 
1 174 
1 175 
1 176 
1 177 
1 178 
1 179 
1 180 
1 181 
1 182 
1 183 
1 184 
1 185 
1 186 
1 187 
1 188 
1 189 
1 190 
1 191 
1 192 
1 193 
1 194 
1 195 
1 196 
1 197 
1 198 
1 199 
1 200 
1 201 
1 202 
1 203 
1 204 
1 205 
1 206 
1 207 
1 208 
1 209 
1 210 
1 211 
1 212 
1 213 
1 214 
1 215 
1 216 
1 217 
1 218 
1 219 
1 220 
1 221 
1 222 
1 223 
1 224 
1 225 
1 226 
1 227 
1 228 
1 229 
1 230 
1 231 
1 232 
1 233 
1 234 
1 235 
1 236 
1 237 
1 238 
1 239 
1 240 
1 241 
1 242 
1 243 
1 244 
1 245 
1 246 
1 247 
1 248 
1 249 
1 250 
1 251 
1 252 
1 253 
1 254 
1 255 
1 256 
1 257 
1 258 
1 259 
1 260 
1 261 
1 262 
1 263 
1 264 
1 265 
1 266 
1 267 
1 268 
1 269 
1 270 
1 271 
1 272 
1 273 
1 274 
1 275 
1 276 
1 277 
1 278 
1 279 
1 280 
1 281 
1 282 
1 283 
1 284 
1 285 
1 286 
1 287 
1 288 
1 289 
1 290 
1 291 
1 292 
1 293 
1 294 
1 295 
1 296 
1 297 
1 298 
1 299 
1 300 
1 301 
1 302 
1 303 
1 304 
1 305 
1 306 
1 307 
1 308 
1 309 
1 310 
1 311 
1 312 
1 313 
1 314 
1 315 
1 316 
1 317 
1 318 
1 319 
1 320 
1 321 
1 322 
1 323 
1 324 
1 325 
1 326 
1 327 
1 328 
1 329 
1 330 
1 331 
1 332 
1 333 
1 334 
1 335 
1 336 
1 337 
1 338 
1 339 
1 340 
1 341 
1 342 
1 343 
1 344 
1 345 
1 346 
1 347 
1 348 
1 349 
1 350 
1 351 
1 352 
1 353 
1 354 
1 355 
1 356 
1 357 
1 358 
1 359 
1 360 
1 361 
1 362 
1 363 
1 364 
1 365 
1 366 
1 367 
1 368 
1 369 
1 370 
1 371 
1 372 
1 373 
1 374 
1 375 
1 376 
1 377 
1 378 
1 379 
1 380 
1 381 
1 382 
1 383 
1 384 
1 385 
1 386 
1 387 
1 388 
1 389 
1 390 
1 391 
1 392 
1 393 
1 394 
1 395 
1 396 
1 397 
1 398 
1 399 
1 400 
1 401 
1 402 
1 403 
1 404 
1 405 
1 406 
1 407 
1 408 
1 409 
1 410 
1 411 
1 412 
1 413 
1 414 
1 415 
1 416 
1 417 
1 418 
1 419 
1 420 
1 421 
1 422 
1 423 
1 424 
1 425 
1 426 
1 427 
1 428 
1 429 
1 430 
1 431 
1 432 
1 433 
1 434 
1 435 
1 436 
1 437 
1 438 
1 439 
1 440 
1 441 
1 442 
1 443 
1 444 
1 445 
1 446 
1 447 
1 448 
1 449 
1 450 
1 451 
1 452 
1 453 
1 454 
1 455 
1 456 
1 457 
1 458 
1 459 
1 460 
1 461 
1 462 
1 463 
1 464 
1 465 
1 466 
1 467 
1 468 
1 469 
1 470 
1 471 
1 472 
1 473 
1 474 
1 475 
1 476 
1 477 
1 478 
1 479 
1 480 
1 481 
1 482 
1 483 
1 484 
1 485 
1 486 
1 487 
1 488 
1 489 
1 490 
1 491 
1 492 
1 493 
1 494 
1 495 
1 496 
1 497 
1 498 
1 499 
1 500 
1 501 
1 502 
1 503 
1 504 
1 505 
1 506 
1 507 
1 508 
1 509 
1 510 
1 511 
1 512 
1 513 

POINT_DATA 514
FIELD FieldData 7
id 1 514 int
48 282 82 160 89 12 6 52 77 
59 243 9 137 73 112 265 50 283 
252 229 83 173 19 71 343 90 267 
251 76 200 85 18 307 110 10 47 
268 161 8 108 75 189 319 97 45 
107 179 290 281 242 32 192 11 125 
202 314 333 328 218 308 152 23 240 
63 164 368 352 127 433 292 249 84 
358 371 347 172 120 263 214 109 305 
211 197 320 344 303 384 64 153 25 
72 340 139 366 205 96 146 294 373 
278 279 295 114 74 227 228 162 226 
315 250 150 126 185 244 346 174 121 
163 201 217 404 239 190 275 136 302 
253 266 341 392 198 213 61 204 334 
316 199 360 309 210 291 354 270 140 
359 296 424 165 277 86 255 264 186 
230 331 449 330 357 171 329 133 33 
102 321 38 99 70 215 257 122 276 
178 423 203 238 148 87 49 151 100 
65 22 21 317 383 372 398 177 212 
256 241 225 159 51 224 254 367 134 
237 88 98 223 62 58 135 188 39 
184 176 306 26 216 175 111 191 34 
149 7 113 57 138 95 301 24 147 
13 124 35 37 46 187 166 30 105 
206 208 4 2 119 393 324 168 222 
258 68 262 154 261 375 92 142 325 
132 40 16 42 300 260 409 313 144 
157 425 348 416 406 336 323 365 448 
219 67 353 285 156 101 386 15 335 
248 29 14 391 141 337 459 402 274 
155 364 123 339 443 129 284 247 3 
181 131 36 193 444 235 417 246 170 
288 221 415 232 207 79 91 412 158 
332 81 395 326 447 115 355 350 286 
311 145 345 195 293 180 351 94 41 
407 419 377 116 287 369 183 55 434 
27 446 298 17 450 271 411 273 117 
106 245 289 432 231 370 322 430 421 
318 5 220 66 400 272 382 399 426 
169 410 381 327 44 435 463 401 453 
53 269 103 445 310 462 69 60 405 
196 297 54 209 20 80 394 312 182 
93 130 43 128 299 28 234 194 104 
78 1 233 118 31 56 363 397 167 
458 378 438 436 414 418 362 452 460 
413 387 361 342 429 455 442 143 461 
376 456 259 380 390 451 441 420 379 
431 440 457 236 428 385 304 475 439 
476 427 474 280 408 454 470 396 437 
388 374 356 389 469 464 473 468 422 
471 465 403 467 472 466 480 483 489 
481 482 338 349 487 477 488 485 484 
486 478 501 479 502 498 491 499 494 
490 507 496 493 500 492 495 497 505 
513 509 506 504 510 508 512 503 514 
511 
type 1 514 int
1 1 1 1 1 1 1 1 1 
1 1 1 1 1 1 1 1 1 
1 1 1 1 1 1 1 1 1 
1 1 1 1 1 1 1 1 1 
1 1 1 1 1 1 1 1 1 
1 1 1 1 1 1 1 1 1 
1 1 1 1 1 1 1 1 1 
1 1 1 1 1 1 1 1 1 
1 1 1 1 1 1 1 1 1 
1 1 1 1 1 1 1 1 1 
1 1 1 1 1 1 1 1 1 
1 1 1 1 1 1 1 1 1 
1 1 1 1 1 1 1 1 1 
1 1 1 1 1 1 1 1 1 
1 1 1 1 1 1 1 1 1 
1 1 1 1 1 1 1 1 1 
1 1 1 1 1 1 1 1 1 
1 1 1 1 1 1 1 1 1 
1 1 1 1 1 1 1 1 1 
1 1 1 1 1 1 1 1 1 
1 1 1 1 1 1 1 1 1 
1 1 1 1 1 1 1 1 1 
1 1 1 1 1 1 1 1 1 
1 1 1 1 1 1 1 1 1 
1 1 1 1 1 1 1 1 1 
1 1 1 1 1 1 1 1 1 
1 1 1 1 1 1 1 1 1 
1 1 1 1 1 1 1 1 1 
1 1 1 1 1 1 1 1 1 
1 1 1 1 1 1 1 1 1 
1 1 1 1 1 1 1 1 1 
1 1 1 1 1 1 1 1 1 
1 1 1 1 1 1 1 1 1 
1 1 1 1 1 1 1 1 1 
1 1 1 1 1 1 1 1 1 
1 1 1 1 1 1 1 1 1 
1 1 1 1 1 1 1 1 1 
1 1 1 1 1 1 1 1 1 
1 1 1 1 1 1 1 1 1 
1 1 1 1 1 1 1 1 1 
1 1 1 1 1 1 1 1 1 
1 1 1 1 1 1 1 1 1 
1 1 1 1 1 1 1 1 1 
1 1 1 1 1 1 1 1 1 
1 1 1 1 1 1 1 1 1 
1 1 1 1 1 1 1 1 1 
1 1 1 1 1 1 1 1 1 
1 1 1 1 1 1 1 1 1 
1 1 1 1 1 1 1 1 1 
1 1 1 1 1 1 1 1 1 
1 1 1 1 1 1 1 1 1 
1 1 1 1 1 1 1 1 1 
1 1 1 1 1 1 1 1 1 
1 1 1 1 1 1 1 1 1 
1 1 1 1 1 1 1 1 1 
1 1 1 1 1 1 1 1 1 
1 1 1 1 1 1 1 1 1 
1 
i 3 514 int
0 0 0 0 0 0 0 0 0 
0 0 0 0 0 0 0 0 0 
0 0 0 0 0 0 0 0 0 
0 0 0 0 0 0 0 0 0 
0 0 0 0 0 0 0 0 0 
0 0 0 0 0 0 0 0 0 
0 0 0 0 0 0 0 0 0 
0 0 0 0 0 0 0 0 0 
0 0 0 0 0 0 0 0 0 
0 0 0 0 0 0 0 0 0 
0 0 0 0 0 0 0 0 0 
0 0 0 0 0 0 0 0 0 
0 0 0 0 0 0 0 0 0 
0 0 0 0 0 0 0 0 0 
0 0 0 0 0 0 0 0 0 
0 0 0 0 0 0 0 0 0 
0 0 0 0 0 0 0 0 0 
0 0 0 0 0 0 0 0 0 
0 0 0 0 0 0 0 0 0 
0 0 0 0 0 0 0 0 0 
0 0 0 0 0 0 0 0 0 
0 0 0 0 0 0 0 0 0 
0 0 0 0 0 0 0 0 0 
0 0 0 0 0 0 0 0 0 
0 0 0 0 0 0 0 0 0 
0 0 0 0 0 0 0 0 0 
0 0 0 0 0 0 0 0 0 
0 0 0 0 0 0 0 0 0 
0 0 0 0 0 0 0 0 0 
0 0 0 0 0 0 0 0 0 
0 0 0 0 0 0 0 0 0 
0 0 0 0 0 0 0 0 0 
0 0 0 0 0 0 0 0 0 
0 0 0 0 0 0 0 0 0 
0 0 0 0 0 0 0 0 0 
0 0 0 0 0 0 0 0 0 
0 0 0 0 0 0 0 0 0 
0 0 0 0 0 0 0 0 0 
0 0 0 0 0 0 0 0 0 
0 0 0 0 0 0 0 0 0 
0 0 0 0 0 0 0 0 0 
0 0 0 0 0 0 0 0 0 
0 0 0 0 0 0 0 0 0 
0 0 0 0 0 0 0 0 0 
0 0 0 0 0 0 0 0 0 
0 0 0 0 0 0 0 0 0 
0 0 0 0 0 0 0 0 0 
0 0 0 0 0 0 0 0 0 
0 0 0 0 0 0 0 0 0 
0 0 0 0 0 0 0 0 0 
0 0 0 0 0 0 0 0 0 
0 0 0 0 0 0 0 0 0 
0 0 0 0 0 0 0 0 0 
0 0 0 0 0 0 0 0 0 
0 0 0 0 0 0 0 0 0 
0 0 0 0 0 0 0 0 0 
0 0 0 0 0 0 0 0 0 
0 0 0 0 0 0 0 0 0 
0 0 0 0 0 0 0 0 0 
0 0 0 0 0 0 0 0 0 
0 0 0 0 0 0 0 0 0 
0 0 0 0 0 0 0 0 0 
0 0 0 0 0 0 0 0 0 
0 0 0 0 0 0 0 0 0 
0 0 0 0 0 0 0 0 0 
0 0 0 0 0 0 0 0 0 
0 0 0 0 0 0 0 0 0 
0 0 0 0 0 0 0 0 0 
0 0 0 0 0 0 0 0 0 
0 0 0 0 0 0 0 0 0 
0 0 0 0 0 0 0 0 0 
0 0 0 0 0 0 0 0 0 
0 0 0 0 0 0 0 0 0 
0 0 0 0 0 0 0 0 0 
0 0 0 0 0 0 0 0 0 
0 0 0 0 0 0 0 0 0 
0 0 0 0 0 0 0 0 0 
0 0 0 0 0 0 0 0 0 
0 0 0 0 0 0 0 0 0 
0 0 0 0 0 0 0 0 0 
0 0 0 0 0 0 0 0 0 
0 0 0 0 0 0 0 0 0 
0 0 0 0 0 0 0 0 0 
0 0 0 0 0 0 0 0 0 
0 0 0 0 0 0 0 0 0 
0 0 0 0 0 0 0 0 0 
0 0 0 0 0 0 0 0 0 
0 0 0 0 0 0 0 0 0 
0 0 0 0 0 0 0 0 0 
0 0 0 0 0 0 0 0 0 
0 0 0 0 0 0 0 0 0 
0 0 0 0 0 0 0 0 0 
0 0 0 0 0 0 0 0 0 
0 0 0 0 0 0 0 0 0 
0 0 0 0 0 0 0 0 0 
0 0 0 0 0 0 0 0 0 
0 0 0 0 0 0 0 0 0 
0 0 0 0 0 0 0 0 0 
0 0 0 0 0 0 0 0 0 
0 0 0 0 0 0 0 0 0 
0 0 0 0 0 0 0 0 0 
0 0 0 0 0 0 0 0 0 
0 0 0 0 0 0 0 0 0 
0 0 0 0 0 0 0 0 0 
0 0 0 0 0 0 0 0 0 
0 0 0 0 0 0 0 0 0 
0 0 0 0 0 0 0 0 0 
0 0 0 0 0 0 0 0 0 
0 0 0 0 0 0 0 0 0 
0 0 0 0 0 0 0 0 0 
0 0 0 0 0 0 0 0 0 
0 0 0 0 0 0 0 0 0 
0 0 0 0 0 0 0 0 0 
0 0 0 0 0 0 0 0 0 
0 0 0 0 0 0 0 0 0 
0 0 0 0 0 0 0 0 0 
0 0 0 0 0 0 0 0 0 
0 0 0 0 0 0 0 0 0 
0 0 0 0 0 0 0 0 0 
0 0 0 0 0 0 0 0 0 
0 0 0 0 0 0 0 0 0 
0 0 0 0 0 0 0 0 0 
0 0 0 0 0 0 0 0 0 
0 0 0 0 0 0 0 0 0 
0 0 0 0 0 0 0 0 0 
0 0 0 0 0 0 0 0 0 
0 0 0 0 0 0 0 0 0 
0 0 0 0 0 0 0 0 0 
0 0 0 0 0 0 0 0 0 
0 0 0 0 0 0 0 0 0 
0 0 0 0 0 0 0 0 0 
0 0 0 0 0 0 0 0 0 
0 0 0 0 0 0 0 0 0 
0 0 0 0 0 0 0 0 0 
0 0 0 0 0 0 0 0 0 
0 0 0 0 0 0 0 0 0 
0 0 0 0 0 0 0 0 0 
0 0 0 0 0 0 0 0 0 
0 0 0 0 0 0 0 0 0 
0 0 0 0 0 0 0 0 0 
0 0 0 0 0 0 0 0 0 
0 0 0 0 0 0 0 0 0 
0 0 0 0 0 0 0 0 0 
0 0 0 0 0 0 0 0 0 
0 0 0 0 0 0 0 0 0 
0 0 0 0 0 0 0 0 0 
0 0 0 0 0 0 0 0 0 
0 0 0 0 0 0 0 0 0 
0 0 0 0 0 0 0 0 0 
0 0 0 0 0 0 0 0 0 
0 0 0 0 0 0 0 0 0 
0 0 0 0 0 0 0 0 0 
0 0 0 0 0 0 0 0 0 
0 0 0 0 0 0 0 0 0 
0 0 0 0 0 0 0 0 0 
0 0 0 0 0 0 0 0 0 
0 0 0 0 0 0 0 0 0 
0 0 0 0 0 0 0 0 0 
0 0 0 0 0 0 0 0 0 
0 0 0 0 0 0 0 0 0 
0 0 0 0 0 0 0 0 0 
0 0 0 0 0 0 0 0 0 
0 0 0 0 0 0 0 0 0 
0 0 0 0 0 0 0 0 0 
0 0 0 0 0 0 0 0 0 
0 0 0 0 0 0 0 0 0 
0 0 0 0 0 0 0 0 0 
0 0 0 0 0 0 0 0 0 
0 0 0 0 0 0 0 0 0 
0 0 0 0 0 0 0 0 0 
0 0 0 0 0 0 0 0 0 
0 0 0 
v 3 514 double
-0.176432 -0.479133 -1.42533 -0.235423 -0.349844 -0.0133622 -0.150544 -0.34945 -0.116045 
-0.00995307 -0.36973 -0.0990892 -0.0832967 -0.223084 -3.8529e-14 0.220331 -0.255345 1.67805e-14 
-0.129266 -0.285065 4.83852e-14 0.119977 -0.23488 8.87996e-15 0.0283574 -0.202639 1.67805e-14 
0.117248 -0.205681 4.83852e-14 -0.0712659 -0.258215 4.04846e-14 -0.211423 -0.182789 -2.29381e-08 
-0.123107 -0.145498 -2.27271e-14 -0.0598722 -0.124393 9.77819e-16 -0.0115046 -0.16491 7.99915e-14 
0.07519 -0.164215 -0.0364721 0.116578 -0.107457 -6.92278e-15 -0.301459 -0.109932 -0.00145762 
-0.148366 -0.125945 4.8386e-14 -0.0883677 -0.164229 -5.43318e-14 -0.0137142 -0.123754 -3.29138e-09 
0.0244282 -0.122767 1.67805e-14 0.152919 -0.112596 7.99923e-14 -0.235284 -0.077831 -4.64296e-14 
-0.187988 -0.315627 0.123271 -0.0228299 -0.0734811 -1.48249e-14 -0.0132745 -0.153486 -3.5139e-11 
0.0528025 -0.0461127 -3.70283e-14 0.0541428 -0.138111 -5.49968e-09 0.102702 -0.194165 -0.0141479 
-0.0210066 -0.0952054 -0.000850035 -0.0710402 -0.151594 2.46827e-14 -0.0686673 -0.114399 -7.80351e-14 
0.0363007 -0.144271 -0.0919652 0.0776484 -0.364337 0.0134034 -0.196451 -0.0721638 -7.79516e-14 
-0.0653742 -0.0923065 -6.6178e-11 -0.0553129 -0.109474 6.46678e-14 -0.0657836 -0.150561 -5.5041e-14 
0.0604201 -0.173239 -2.2934e-06 0.17056 -0.199243 -0.0498581 0.137265 -0.260929 0.0435976 
0.153231 -0.125135 1.01497e-12 0.0621599 -0.124303 2.36574e-06 -0.16543 -0.0749504 1.67798e-14 
-0.147591 -0.0617739 2.46819e-14 -0.207955 -0.100323 1.67805e-14 -0.122822 -0.0913187 -8.59365e-14 
-0.0866348 -0.0472001 -0.0106102 -0.189998 -0.11797 -0.00197502 -0.0762823 -0.0847877 9.11122e-09 
-0.0262218 -0.0779029 2.46819e-14 0.0819189 -0.0980738 -7.80359e-14 0.237567 -0.179309 9.77811e-16 
-0.0531648 -0.1918 -8.59365e-14 -0.103891 -0.0356332 -0.000475513 0.016371 -0.128517 0.0020311 
0.0525766 -0.329335 4.79165e-07 -0.0833406 -0.0536052 0.00261417 -0.0936208 -0.0733353 -0.000219408 
-0.0461522 -0.0968038 2.13184e-05 0.1155 -0.0691733 1.67805e-14 -0.0898174 -0.0770514 4.83852e-14 
0.190816 -0.0885717 0.0122876 0.0985731 -0.00956217 9.7782e-16 -0.173768 -0.0328164 0.00533984 
0.0183512 -0.03533 1.08248e-07 0.0519662 -0.0593997 -0.00758978 0.0548886 0.0453272 -0.0578964 
0.112164 -0.0269846 0.000208817 0.155743 -0.0624378 -0.00260814 -0.0553335 -0.0357353 5.62874e-14 
-0.27215 -0.0302374 0.0460585 -0.0959761 -0.163566 0.401757 0.0460484 -0.159446 -0.00802266 
-0.0138893 -0.0401507 -0.00147281 0.0331468 0.110055 -2.45361e-05 -0.0403837 0.0210908 -0.000287261 
-0.0111159 -0.0454412 -7.47518e-15 0.0758253 -0.0312242 0.00101679 0.0998566 -0.00903544 -7.80359e-14 
-0.114304 -0.036751 -7.80359e-14 -0.0723116 -0.0251314 2.32062e-05 -0.0622259 0.0987824 0.0225015 
-0.230134 -0.028357 1.08338e-08 0.0133194 0.139867 -0.074339 0.218235 -0.00353009 0.0649592 
-0.115189 -0.0100952 4.04854e-14 -0.114595 -0.0296264 -2.27263e-14 0.0122835 0.113866 0.00697306 
0.0222033 -0.0297705 0.00898293 -0.0150547 0.0498597 6.80333e-06 -0.019107 -0.0192271 -0.0303156 
0.0912689 0.144651 0.0268405 -0.111381 -0.0247977 7.99923e-14 -0.0384388 0.000999583 0.000898857 
0.0260034 -0.0690954 0.00665848 0.0283473 -0.0329924 0.0005963 -0.0217426 0.0336057 0.0183644 
0.0103757 -0.0110539 -0.00675799 0.0824649 -0.0136928 7.20901e-14 0.0870219 -0.000201905 8.87918e-15 
-0.145456 0.0011665 -4.64296e-14 -0.179369 0.0117838 -6.22331e-14 -0.0707353 -0.0295047 -3.8529e-14 
-0.0429559 -0.0071172 7.20901e-14 -0.0067616 -0.0536711 2.46819e-14 6.68839e-05 -0.0596029 -0.018631 
-0.035195 -0.0870917 0.00990885 -0.0573483 -0.0546685 0.00062645 -0.0395104 0.0371779 -0.0133414 