# vtk DataFile Version 4.0
Generated by LIGGGHTS
ASCII
DATASET POLYDATA
POINTS 721 float
-0.0866442 -0.250025 -0.469941 -0.0691859 -0.162791 -0.147122 -0.0203725 -0.165794 -0.144087 
-0.0860372 -0.160055 -0.129143 -0.020939 -0.130257 -0.0844333 -0.0520843 -0.150543 -0.0808062 
0.0871628 -0.122415 -0.0705092 -0.0544398 -0.135427 -0.064402 0.0596465 -0.12939 -0.0529766 
0.0186819 -0.127751 -0.0363484 0.0666889 -0.123303 -0.0368598 -0.011577 -0.106924 -0.0220779 
0.0173834 -0.118952 -0.00798198 0.0272514 -0.119244 -0.00830626 -0.0259925 -0.114135 -0.0032513 
0.0515473 -0.120582 -0.00261628 0.0182342 -0.113035 0.000571124 0.0845667 -0.108835 0.00609827 
-0.0959229 -0.0862337 0.0114983 0.0112559 -0.0857184 0.0114983 0.0374584 -0.0867169 0.0114983 
-0.0828029 -0.0816838 0.0114983 -0.0454638 -0.0809483 0.0114983 0.0367452 -0.0823122 0.0114983 
0.0424641 -0.0816865 0.0114983 0.0545217 -0.0815434 0.0114983 0.0576946 -0.0841464 0.0114983 
-0.080996 -0.0783233 0.0114983 -0.0645782 -0.0776775 0.0114983 -0.0255159 -0.0783149 0.0114983 
-0.0202297 -0.0751442 0.0114983 -0.0139611 -0.0767458 0.0114983 0.0246322 -0.0739499 0.0114983 
0.0577773 -0.0745851 0.0114983 -0.0916746 -0.0699653 0.0114983 -0.00524563 -0.0734951 0.0114983 
0.0200634 -0.0701587 0.0114983 0.0783964 -0.0695738 0.0114983 0.0241134 -0.0680039 0.0114983 
0.029418 -0.0686767 0.011498 -0.022778 -0.0636284 0.0114983 -0.0189221 -0.0632143 0.0114983 
-0.00691266 -0.0632985 0.0114983 0.00576728 -0.0643538 0.0114983 0.0289785 -0.0656691 0.0114979 
0.0512183 -0.0646663 0.0114983 0.0923668 -0.0659185 0.0114983 -0.0515737 -0.0605182 0.0114983 
0.0115398 -0.0612167 0.0114983 0.0499354 -0.0601014 0.0114983 -0.0915121 -0.0556997 0.0114983 
-0.020239 -0.0586344 0.0114983 -0.0201052 -0.0552912 0.0114983 0.0206244 -0.0549879 0.0114983 
0.0332577 -0.0581182 0.0114983 0.0754017 -0.0609347 0.0114983 -0.0882208 -0.0537506 0.0114983 
-0.0547279 -0.0552133 0.0114983 -0.0479923 -0.0533248 0.0114974 -0.0396496 -0.0531383 0.0114983 
-0.0297161 -0.0523761 0.0114983 -0.017083 -0.054025 0.0114983 -0.0141532 -0.0551895 0.0114984 
-0.000245847 -0.0554388 0.0114983 0.00404741 -0.0538007 0.0114983 0.0596941 -0.0534241 0.0114983 
-0.0945203 -0.0512801 0.0114983 -0.0912513 -0.0511329 0.0114983 -0.0894167 -0.0484843 0.0114983 
-0.0471614 -0.0503158 0.0116727 -0.0196552 -0.0520325 0.0114961 0.00663808 -0.0517927 0.0114983 
0.0132386 -0.0503836 0.0114983 -0.0584536 -0.0462946 0.0114983 -0.050098 -0.0486478 0.0114936 
-0.043552 -0.0446015 0.0114983 -0.0342179 -0.0457924 0.011501 -0.0321901 -0.0480771 0.0114983 
-0.0197374 -0.0474675 0.0114983 0.027392 -0.0476154 0.0114983 -0.0213948 -0.0424329 0.0114983 
-0.0590565 -0.0395782 0.0114983 -0.0303514 -0.0379163 0.0114983 -0.0261637 -0.0399563 0.0114983 
-0.0218914 -0.0391795 0.0114983 -0.0166553 -0.0384464 0.0114983 0.000497171 -0.0397591 0.0114986 
0.00666108 -0.0401917 0.0114983 0.0125256 -0.0405735 0.0114983 0.0332406 -0.0387005 0.0114978 
0.0801737 -0.0402397 0.0114983 -0.015667 -0.0348849 0.0114978 -0.00515056 -0.0359843 0.0114983 
0.0100748 -0.0369434 0.0114983 0.0151028 -0.0380025 0.0114983 -0.0312792 -0.0337061 0.0114983 
0.00951748 -0.0331925 0.0114983 0.0320579 -0.0317437 0.0114983 0.0518386 -0.0324945 0.0114983 
-0.0052073 -0.0298187 0.0114975 -0.00390814 -0.0270595 0.0114963 0.00611374 -0.0308367 0.0114984 
0.0255664 -0.0291697 0.0114983 0.0505771 -0.0292098 0.0114983 0.061937 -0.0299705 0.0114983 
0.0698061 -0.0294688 0.0114983 -0.0459683 -0.0232011 0.0114983 -0.0186175 -0.0239743 0.0115995 
-0.0143746 -0.0235031 0.0119738 -0.00803603 -0.0249603 0.0118036 -0.00511633 -0.0243157 0.0115034 
-0.000895451 -0.0254834 0.0114983 0.00395256 -0.0250476 0.0114983 0.0132019 -0.0241812 0.0114983 
0.032681 -0.0248383 0.0116092 -0.0638552 -0.0216356 0.0114983 -0.0535883 -0.0225499 0.0114983 
-0.0456648 -0.0198813 0.0114983 -0.0371719 -0.0204507 0.01165 -0.00809085 -0.0219033 0.011535 
0.00666623 -0.0218963 0.0114937 0.0335969 -0.0214741 0.0114983 0.0668744 -0.0210516 0.011498 
-0.0700487 -0.0196987 0.0114983 -0.060261 -0.0208038 0.0114983 -0.0418417 -0.0175877 0.0114983 
-0.0344487 -0.019096 0.0115006 -0.02697 -0.0174001 0.0116034 -0.00799494 -0.0184464 0.011514 
-0.000954666 -0.018104 0.0115299 0.00205742 -0.0177403 0.0114971 0.00563747 -0.0177202 0.0115005 
0.0156377 -0.0163539 0.0114982 0.0189638 -0.0198714 0.0114983 0.0242348 -0.0191564 0.0115135 
0.0529117 -0.0157368 0.0118328 0.0615429 -0.0167825 0.0114983 -0.0138438 -0.0124286 0.0115442 
-0.0108399 -0.0135331 0.0114983 -0.00235933 -0.0137012 0.0118443 0.00390643 -0.0152631 0.0116532 
0.00810873 -0.0134023 0.0114983 0.020156 -0.0143615 0.0115375 0.0230024 -0.013223 0.0114984 
0.0243495 -0.0160289 0.0115016 0.0332702 -0.0130301 0.0114987 -0.069869 -0.0111215 0.0114983 
-0.0666246 -0.0119475 0.0114983 -0.0151934 -0.0097233 0.0114982 -0.0115942 -0.0102448 0.0114983 
-0.0040973 -0.0112321 0.0115017 0.000838924 -0.0126789 0.0115494 0.00414325 -0.0114982 0.0115327 
0.00726849 -0.0104231 0.0114974 0.048062 -0.0104711 0.0115068 -0.0834254 -0.0098069 0.0114983 
-0.0352815 -0.00635538 0.0114983 -0.0314767 -0.00875113 0.0115077 -0.0252022 -0.00823743 0.0115004 
-0.0186469 -0.00834019 0.0115159 -0.0101967 -0.00729596 0.0115069 -0.00721042 -0.00844976 0.011504 
-0.00197852 -0.00888337 0.0114989 0.00537382 -0.00762136 0.0114981 0.0130033 -0.00815752 0.0114821 
0.0217184 -0.00623669 0.0123811 0.0538345 -0.0075697 0.0114983 0.0596017 -0.00805739 0.0114983 
-0.0959227 -0.00276173 0.0114983 -0.0787431 -0.00329222 0.0114983 -0.05408 -0.00460316 0.0114983 
-0.0403429 -0.00201787 0.0114983 -0.0359936 -0.00341935 0.0114723 -0.0300588 -0.00241399 0.0114979 
-0.0243855 -0.000688803 0.0119832 -0.0235537 -0.00483974 0.0114983 -0.0144492 -0.00180891 0.0116875 
-0.0144808 -0.00548915 0.0116547 -0.0099945 -0.00371085 0.0115066 -0.000756093 -0.00295528 0.0120951 
0.00570633 -0.00457098 0.0114978 0.00706895 -0.00128788 0.0114971 0.0110464 -0.00345021 0.011498 
0.0216713 -0.00308487 0.0115048 0.0284068 -0.00423296 0.0115022 0.0387581 -0.00395903 0.0114983 
0.0517933 -0.00282404 0.0114987 0.0671029 -0.00305417 0.0114983 -0.0758997 0.00107744 0.0114983 
-0.0493778 0.000288317 0.0114989 -0.0322562 0.0016593 0.0114983 -0.000412011 8.10822e-05 0.0115539 
0.00886522 0.00139084 0.0115175 0.0283416 0.000650894 0.0117681 0.0488697 -0.00213188 0.0115004 
0.0593947 2.66521e-05 0.0114983 -0.0576376 0.00186239 0.0114983 -0.0421596 0.00422048 0.0114983 
-0.0382771 0.00433893 0.0114983 -0.0356315 0.0027424 0.0114983 -0.0114969 0.00294779 0.011499 
-0.00855325 0.00237773 0.0114877 0.00196875 0.00394298 0.0118211 0.00483076 0.0048055 0.0114983 
0.0303383 0.00346919 0.0114983 0.0527917 0.00304224 0.0114983 0.0556744 0.00394004 0.0114983 
-0.0621536 0.0079861 0.0114983 -0.0488987 0.00772036 0.0114983 -0.046694 0.00562905 0.0114983 
-0.0345763 0.00557413 0.0114982 -0.0312034 0.00638681 0.0114983 -0.0158381 0.00878815 0.0124878 
-0.0137382 0.00634367 0.0117532 -0.000614049 0.00929197 0.0114793 0.00737935 0.00837763 0.0114973 
0.00779245 0.00540784 0.0114981 0.0112285 0.00831002 0.0114993 0.0143117 0.00601143 0.0114983 
0.0268587 0.00575889 0.0114983 0.0319837 0.00641836 0.0114984 0.0489722 0.00535469 0.0115109 
-0.0959262 0.0105436 0.0114983 -0.0931154 0.0118295 0.0114983 -0.0401145 0.0112326 0.0114983 
-0.028691 0.00897184 0.0114983 -0.0291783 0.0120423 0.0114983 -0.0189515 0.0110371 0.0114965 
-0.0127214 0.00951113 0.0114984 -0.00578235 0.0103531 0.0114948 0.00664879 0.0112838 0.0114943 
0.0113278 0.0113539 0.0115028 0.0177028 0.0115882 0.0116976 0.050134 0.00982836 0.0114983 
-0.0728887 0.0145379 0.0114983 -0.0458547 0.0118043 0.011496 -0.0233318 0.0136274 0.0114969 
-0.0179961 0.0143375 0.0117075 -0.0126003 0.0125216 0.0114983 -0.000318353 0.014225 0.0114882 
0.00240851 0.0156474 0.0114983 0.00418082 0.0131077 0.0114985 0.0110076 0.0143382 0.0115031 
0.0184077 0.0145081 0.0116667 0.0279262 0.0163428 0.0114973 0.0427961 0.0134038 0.0114983 
0.0522966 0.0124331 0.0114983 0.0575332 0.0132447 0.0114983 0.0754555 0.0120951 0.0114983 
-0.0376211 0.016079 0.0114884 -0.0171222 0.0173298 0.0114983 -0.00803618 0.0170391 0.0114983 
-0.00450589 0.0180278 0.0115125 0.00451445 0.017787 0.0114983 0.0125872 0.017569 0.0114983 
0.0194387 0.0173371 0.0116556 0.0267399 0.0191036 0.0115464 0.0498585 0.0193439 0.0114983 
-0.0843754 0.0231373 0.0114983 -0.0183081 0.0218094 0.0123445 0.00216621 0.0200488 0.0114958 
0.00728345 0.0210598 0.0114991 0.0127406 0.0221943 0.0113932 0.0171624 0.0230831 0.0114983 
0.0239655 0.0235837 0.0115253 0.027312 0.0233634 0.0114983 0.0554849 0.0212532 0.0114981 
0.057901 0.0194299 0.0114983 -0.0953032 0.0251543 0.0114983 -0.0899564 0.0249595 0.0114983 
-0.0255386 0.0254087 0.0130888 -0.00861126 0.0256683 0.0114992 -0.000703199 0.0255048 0.011498 
0.00320835 0.0234945 0.0115162 0.0220267 0.0257745 0.0128592 0.0466963 0.0244694 0.0114983 
0.0495887 0.0257118 0.0114983 -0.0419153 0.0288559 0.0114983 -0.0388465 0.0289896 0.0114983 
-0.0296041 0.0283409 0.0114983 -0.0223893 0.0283405 0.0114983 0.00489441 0.0275242 0.0114983 
0.00183954 0.0285925 0.0114973 0.0177868 0.0285848 0.0114983 0.027388 0.0286994 0.0116708 
0.0399357 0.0293995 0.0114983 0.0492976 0.0288506 0.0114983 -0.0939782 0.0318053 0.0114983 
-0.0442786 0.0308294 0.0114983 -0.0398532 0.0327263 0.0114983 -0.0351211 0.0324105 0.0114983 
-0.0315968 0.0323638 0.0114983 -0.0101643 0.032649 0.0115209 0.00204094 0.0317676 0.0114983 
0.00504233 0.0308402 0.0114983 0.0140714 0.0333927 0.0114984 0.0228505 0.0319647 0.0115061 
0.0377572 0.0322466 0.0114983 -0.0392623 0.0362365 0.0114983 -0.0287911 0.0346271 0.0114983 
-0.0211291 0.0344794 0.0114983 -0.0134593 0.0365691 0.0114983 -0.00939659 0.0356242 0.0114983 
-0.00369534 0.0363008 0.0114983 -0.000781022 0.0352046 0.0114983 0.0043233 0.0348813 0.0114983 
0.0352158 0.0364279 0.0116891 0.0383063 0.0355571 0.0114983 0.0436233 0.0344961 0.011554 
0.041772 0.0372068 0.0114983 0.0466097 0.0349106 0.0115024 -0.0371958 0.0394562 0.0114983 
[...]
POINT_DATA 721
FIELD FieldData 7
id 1 721 int
48 82 160 282 30 89 12 6 105 
206 52 356 77 59 243 397 363 208 
9 112 265 137 229 10 393 200 189 
343 252 73 83 386 173 50 283 267 
108 19 328 76 18 8 307 406 110 
319 125 242 514 97 71 90 85 251 
75 526 179 290 409 281 268 161 498 
192 333 11 47 45 107 202 523 458 
418 353 591 425 378 32 152 433 240 
358 314 218 308 371 588 475 101 63 
23 352 546 438 487 489 214 525 448 
540 120 263 109 292 164 249 368 502 
600 460 127 521 496 339 550 211 197 
84 510 172 587 482 507 436 205 344 
320 476 578 571 612 123 560 139 603 
585 305 347 303 72 443 340 524 500 
610 366 64 153 25 499 146 459 294 
278 538 495 36 575 527 250 150 126 
185 373 279 574 384 295 217 114 227 
228 412 474 651 315 473 617 592 533 
456 244 288 563 562 355 302 201 74 
501 226 121 447 163 346 342 174 239 
404 96 472 564 293 275 573 420 411 
204 334 253 162 488 199 332 468 341 
484 532 512 579 213 369 210 61 432 
407 316 419 552 576 296 539 360 136 
291 289 604 231 266 359 421 497 485 
392 198 461 548 165 257 264 370 508 
605 430 537 424 589 309 86 513 230 
519 536 318 641 408 280 329 33 277 
629 379 331 547 649 422 171 178 534 
457 471 483 445 382 631 330 357 133 
276 255 102 321 354 100 435 215 446 
462 385 437 186 38 151 99 238 463 
449 87 450 49 22 381 405 470 551 
70 399 122 423 383 148 509 304 21 
60 269 317 177 212 203 256 372 241 
159 396 51 398 237 20 394 224 254 
65 134 223 176 88 98 225 39 62 
135 26 216 175 306 188 367 46 111 
58 166 149 191 7 113 147 184 34 
138 35 37 95 187 57 301 124 13 
24 4 2 324 262 119 154 416 222 
261 258 68 168 375 325 260 529 132 
167 92 389 142 300 481 144 541 313 
348 42 336 40 16 528 285 365 477 
157 414 156 464 494 518 413 559 219 
568 543 452 15 638 467 335 67 323 
593 635 594 660 595 566 506 248 29 
337 129 402 284 155 14 387 626 3 
403 274 429 131 193 391 141 611 469 
656 504 361 247 181 465 442 455 444 
535 235 517 417 415 362 561 531 557 
395 246 380 170 115 614 376 207 79 
91 441 608 158 639 652 601 94 286 
427 596 582 326 492 621 351 480 311 
624 195 616 637 662 466 180 522 221 
232 350 245 183 625 642 81 584 190 
511 606 586 545 451 271 145 345 143 
27 654 544 41 542 577 434 116 558 
431 565 628 5 491 298 440 117 66 
553 55 613 259 640 520 454 580 590 
17 106 236 490 530 645 377 140 287 
555 322 270 515 426 273 338 428 556 
400 327 272 554 53 220 169 44 401 
209 486 54 103 349 310 196 503 388 
69 312 478 297 128 80 479 182 93 
43 453 299 194 374 234 130 28 104 
78 1 56 118 31 410 233 598 439 
581 615 623 583 572 644 364 665 669 
633 602 599 663 653 619 632 634 622 
648 390 661 646 659 627 647 609 570 
597 505 668 567 620 549 516 493 664 
650 607 658 618 666 657 667 678 655 
676 677 679 630 643 670 672 674 636 
675 673 681 671 569 690 685 682 680 
695 691 688 687 683 686 684 692 693 
694 689 701 700 707 698 697 702 708 
719 706 705 696 704 703 699 717 709 
716 720 718 710 721 713 712 715 714 
711 
type 1 721 int
1 1 1 1 1 1 1 1 1 
1 1 1 1 1 1 1 1 1 
1 1 1 1 1 1 1 1 1 
1 1 1 1 1 1 1 1 1 
1 1 1 1 1 1 1 1 1 
1 1 1 1 1 1 1 1 1 
1 1 1 1 1 1 1 1 1 
1 1 1 1 1 1 1 1 1 
1 1 1 1 1 1 1 1 1 
1 1 1 1 1 1 1 1 1 
1 1 1 1 1 1 1 1 1 
1 1 1 1 1 1 1 1 1 
1 1 1 1 1 1 1 1 1 
1 1 1 1 1 1 1 1 1 
1 1 1 1 1 1 1 1 1 
1 1 1 1 1 1 1 1 1 
1 1 1 1 1 1 1 1 1 
1 1 1 1 1 1 1 1 1 
1 1 1 1 1 1 1 1 1 
1 1 1 1 1 1 1 1 1 
1 1 1 1 1 1 1 1 1 
1 1 1 1 1 1 1 1 1 
1 1 1 1 1 1 1 1 1 
1 1 1 1 1 1 1 1 1 
1 1 1 1 1 1 1 1 1 
1 1 1 1 1 1 1 1 1 
1 1 1 1 1 1 1 1 1 
1 1 1 1 1 1 1 1 1 
1 1 1 1 1 1 1 1 1 
1 1 1 1 1 1 1 1 1 
1 1 1 1 1 1 1 1 1 
1 1 1 1 1 1 1 1 1 
1 1 1 1 1 1 1 1 1 
1 1 1 1 1 1 1 1 1 
1 1 1 1 1 1 1 1 1 
1 1 1 1 1 1 1 1 1 
1 1 1 1 1 1 1 1 1 
1 1 1 1 1 1 1 1 1 
1 1 1 1 1 1 1 1 1 
1 1 1 1 1 1 1 1 1 
1 1 1 1 1 1 1 1 1 
1 1 1 1 1 1 1 1 1 
1 1 1 1 1 1 1 1 1 
1 1 1 1 1 1 1 1 1 
1 1 1 1 1 1 1 1 1 
1 1 1 1 1 1 1 1 1 
1 1 1 1 1 1 1 1 1 
1 1 1 1 1 1 1 1 1 
1 1 1 1 1 1 1 1 1 
1 1 1 1 1 1 1 1 1 
1 1 1 1 1 1 1 1 1 
1 1 1 1 1 1 1 1 1 
1 1 1 1 1 1 1 1 1 
1 1 1 1 1 1 1 1 1 
1 1 1 1 1 1 1 1 1 
1 1 1 1 1 1 1 1 1 
1 1 1 1 1 1 1 1 1 
1 1 1 1 1 1 1 1 1 
1 1 1 1 1 1 1 1 1 
1 1 1 1 1 1 1 1 1 
1 1 1 1 1 1 1 1 1 
1 1 1 1 1 1 1 1 1 
1 1 1 1 1 1 1 1 1 
1 1 1 1 1 1 1 1 1 
1 1 1 1 1 1 1 1 1 
1 1 1 1 1 1 1 1 1 
1 1 1 1 1 1 1 1 1 
1 1 1 1 1 1 1 1 1 
1 1 1 1 1 1 1 1 1 
1 1 1 1 1 1 1 1 1 
1 1 1 1 1 1 1 1 1 
1 1 1 1 1 1 1 1 1 
1 1 1 1 1 1 1 1 1 
1 1 1 1 1 1 1 1 1 
1 1 1 1 1 1 1 1 1 
1 1 1 1 1 1 1 1 1 
1 1 1 1 1 1 1 1 1 
1 1 1 1 1 1 1 1 1 
1 1 1 1 1 1 1 1 1 
1 1 1 1 1 1 1 1 1 
1 
i 3 721 int
0 0 0 0 0 0 0 0 0 
0 0 0 0 0 0 0 0 0 
0 0 0 0 0 0 0 0 0 
0 0 0 0 0 0 0 0 0 
0 0 0 0 0 0 0 0 0 
0 0 0 0 0 0 0 0 0 
0 0 0 0 0 0 0 0 0 
0 0 0 0 0 0 0 0 0 
0 0 0 0 0 0 0 0 0 
0 0 0 0 0 0 0 0 0 
0 0 0 0 0 0 0 0 0 
0 0 0 0 0 0 0 0 0 
0 0 0 0 0 0 0 0 0 
0 0 0 0 0 0 0 0 0 
0 0 0 0 0 0 0 0 0 
0 0 0 0 0 0 0 0 0 
0 0 0 0 0 0 0 0 0 
0 0 0 0 0 0 0 0 0 
0 0 0 0 0 0 0 0 0 
0 0 0 0 0 0 0 0 0 
0 0 0 0 0 0 0 0 0 
0 0 0 0 0 0 0 0 0 
0 0 0 0 0 0 0 0 0 
0 0 0 0 0 0 0 0 0 
0 0 0 0 0 0 0 0 0 
0 0 0 0 0 0 0 0 0 
0 0 0 0 0 0 0 0 0 
0 0 0 0 0 0 0 0 0 
0 0 0 0 0 0 0 0 0 
0 0 0 0 0 0 0 0 0 
0 0 0 0 0 0 0 0 0 
0 0 0 0 0 0 0 0 0 
0 0 0 0 0 0 0 0 0 
0 0 0 0 0 0 0 0 0 
0 0 0 0 0 0 0 0 0 
0 0 0 0 0 0 0 0 0 
0 0 0 0 0 0 0 0 0 
0 0 0 0 0 0 0 0 0 
0 0 0 0 0 0 0 0 0 
0 0 0 0 0 0 0 0 0 
0 0 0 0 0 0 0 0 0 
0 0 0 0 0 0 0 0 0 
0 0 0 0 0 0 0 0 0 
0 0 0 0 0 0 0 0 0 
0 0 0 0 0 0 0 0 0 
0 0 0 0 0 0 0 0 0 
0 0 0 0 0 0 0 0 0 
0 0 0 0 0 0 0 0 0 
0 0 0 0 0 0 0 0 0 
0 0 0 0 0 0 0 0 0 
0 0 0 0 0 0 0 0 0 
0 0 0 0 0 0 0 0 0 
0 0 0 0 0 0 0 0 0 
0 0 0 0 0 0 0 0 0 
0 0 0 0 0 0 0 0 0 
0 0 0 0 0 0 0 0 0 
0 0 0 0 0 0 0 0 0 
0 0 0 0 0 0 0 0 0 
0 0 0 0 0 0 0 0 0 
0 0 0 0 0 0 0 0 0 
0 0 0 0 0 0 0 0 0 
0 0 0 0 0 0 0 0 0 
0 0 0 0 0 0 0 0 0 
0 0 0 0 0 0 0 0 0 
0 0 0 0 0 0 0 0 0 
0 0 0 0 0 0 0 0 0 
0 0 0 0 0 0 0 0 0 
0 0 0 0 0 0 0 0 0 
0 0 0 0 0 0 0 0 0 
0 0 0 0 0 0 0 0 0 
0 0 0 0 0 0 0 0 0 
0 0 0 0 0 0 0 0 0 
0 0 0 0 0 0 0 0 0 
0 0 0 0 0 0 0 0 0 
0 0 0 0 0 0 0 0 0 
0 0 0 0 0 0 0 0 0 
0 0 0 0 0 0 0 0 0 
0 0 0 0 0 0 0 0 0 
0 0 0 0 0 0 0 0 0 
0 0 0 0 0 0 0 0 0 
0 0 0 0 0 0 0 0 0 
0 0 0 0 0 0 0 0 0 
0 0 0 0 0 0 0 0 0 
0 0 0 0 0 0 0 0 0 
0 0 0 0 0 0 0 0 0 
0 0 0 0 0 0 0 0 0 
0 0 0 0 0 0 0 0 0 
0 0 0 0 0 0 0 0 0 
0 0 0 0 0 0 0 0 0 
0 0 0 0 0 0 0 0 0 
0 0 0 0 0 0 0 0 0 
0 0 0 0 0 0 0 0 0 
0 0 0 0 0 0 0 0 0 
0 0 0 0 0 0 0 0 0 
0 0 0 0 0 0 0 0 0 
0 0 0 0 0 0 0 0 0 
0 0 0 0 0 0 0 0 0 
0 0 0 0 0 0 0 0 0 
0 0 0 0 0 0 0 0 0 
0 0 0 0 0 0 0 0 0 
0 0 0 0 0 0 0 0 0 
0 0 0 0 0 0 0 0 0 
0 0 0 0 0 0 0 0 0 
0 0 0 0 0 0 0 0 0 
0 0 0 0 0 0 0 0 0 
0 0 0 0 0 0 0 0 0 
0 0 0 0 0 0 0 0 0 
0 0 0 0 0 0 0 0 0 
0 0 0 0 0 0 0 0 0 
0 0 0 0 0 0 0 0 0 
0 0 0 0 0 0 0 0 0 
0 0 0 0 0 0 0 0 0 
0 0 0 0 0 0 0 0 0 
0 0 0 0 0 0 0 0 0 
0 0 0 0 0 0 0 0 0 
0 0 0 0 0 0 0 0 0 
0 0 0 0 0 0 0 0 0 
0 0 0 0 0 0 0 0 0 
0 0 0 0 0 0 0 0 0 
0 0 0 0 0 0 0 0 0 
0 0 0 0 0 0 0 0 0 
0 0 0 0 0 0 0 0 0 
0 0 0 0 0 0 0 0 0 
0 0 0 0 0 0 0 0 0 
0 0 0 0 0 0 0 0 0 
0 0 0 0 0 0 0 0 0 
0 0 0 0 0 0 0 0 0 
0 0 0 0 0 0 0 0 0 
0 0 0 0 0 0 0 0 0 
0 0 0 0 0 0 0 0 0 
0 0 0 0 0 0 0 0 0 
0 0 0 0 0 0 0 0 0 
0 0 0 0 0 0 0 0 0 
0 0 0 0 0 0 0 0 0 
0 0 0 0 0 0 0 0 0 
0 0 0 0 0 0 0 0 0 
0 0 0 0 0 0 0 0 0 
0 0 0 0 0 0 0 0 0 
0 0 0 0 0 0 0 0 0 
0 0 0 0 0 0 0 0 0 
0 0 0 0 0 0 0 0 0 
0 0 0 0 0 0 0 0 0 
0 0 0 0 0 0 0 0 0 
0 0 0 0 0 0 0 0 0 
0 0 0 0 0 0 0 0 0 
0 0 0 0 0 0 0 0 0 
0 0 0 0 0 0 0 0 0 
0 0 0 0 0 0 0 0 0 
0 0 0 0 0 0 0 0 0 
0 0 0 0 0 0 0 0 0 
0 0 0 0 0 0 0 0 0 
0 0 0 0 0 0 0 0 0 
0 0 0 0 0 0 0 0 0 
0 0 0 0 0 0 0 0 0 
0 0 0 0 0 0 0 0 0 
0 0 0 0 0 0 0 0 0 
0 0 0 0 0 0 0 0 0 
0 0 0 0 0 0 0 0 0 
0 0 0 0 0 0 0 0 0 
0 0 0 0 0 0 0 0 0 
0 0 0 0 0 0 0 0 0 
0 0 0 0 0 0 0 0 0 
0 0 0 0 0 0 0 0 0 
0 0 0 0 0 0 0 0 0 
0 0 0 0 0 0 0 0 0 
0 0 0 0 0 0 0 0 0 
0 0 0 0 0 0 0 0 0 
0 0 0 0 0 0 0 0 0 
0 0 0 0 0 0 0 0 0 
0 0 0 0 0 0 0 0 0 
0 0 0 0 0 0 0 0 0 
0 0 0 0 0 0 0 0 0 
0 0 0 0 0 0 0 0 0 
0 0 0 0 0 0 0 0 0 
0 0 0 0 0 0 0 0 0 
0 0 0 0 0 0 0 0 0 
0 0 0 0 0 0 0 0 0 
0 0 0 0 0 0 0 0 0 
0 0 0 0 0 0 0 0 0 
0 0 0 0 0 0 0 0 0 
0 0 0 0 0 0 0 0 0 
0 0 0 0 0 0 0 0 0 
0 0 0 0 0 0 0 0 0 
0 0 0 0 0 0 0 0 0 
0 0 0 0 0 0 0 0 0 
0 0 0 0 0 0 0 0 0 
0 0 0 0 0 0 0 0 0 
0 0 0 0 0 0 0 0 0 
0 0 0 0 0 0 0 0 0 
0 0 0 0 0 0 0 0 0 
0 0 0 0 0 0 0 0 0 
0 0 0 0 0 0 0 0 0 
0 0 0 0 0 0 0 0 0 
0 0 0 0 0 0 0 0 0 
0 0 0 0 0 0 0 0 0 
0 0 0 0 0 0 0 0 0 
0 0 0 0 0 0 0 0 0 
0 0 0 0 0 0 0 0 0 
0 0 0 0 0 0 0 0 0 
0 0 0 0 0 0 0 0 0 
0 0 0 0 0 0 0 0 0 
0 0 0 0 0 0 0 0 0 
0 0 0 0 0 0 0 0 0 
0 0 0 0 0 0 0 0 0 
0 0 0 0 0 0 0 0 0 
0 0 0 0 0 0 0 0 0 
0 0 0 0 0 0 0 0 0 
0 0 0 0 0 0 0 0 0 
0 0 0 0 0 0 0 0 0 
0 0 0 0 0 0 0 0 0 
0 0 0 0 0 0 0 0 0 
0 0 0 0 0 0 0 0 0 
0 0 0 0 0 0 0 0 0 
0 0 0 0 0 0 0 0 0 
0 0 0 0 0 0 0 0 0 
0 0 0 0 0 0 0 0 0 
0 0 0 0 0 0 0 0 0 
0 0 0 0 0 0 0 0 0 
0 0 0 0 0 0 0 0 0 
0 0 0 0 0 0 0 0 0 
0 0 0 0 0 0 0 0 0 
0 0 0 0 0 0 0 0 0 
0 0 0 0 0 0 0 0 0 
0 0 0 0 0 0 0 0 0 
0 0 0 0 0 0 0 0 0 
0 0 0 0 0 0 0 0 0 
0 0 0 0 0 0 0 0 0 
0 0 0 0 0 0 0 0 0 
0 0 0 0 0 0 0 0 0 
0 0 0 0 0 0 0 0 0 
0 0 0 0 0 0 0 0 0 
0 0 0 0 0 0 0 0 0 
0 0 0 0 0 0 0 0 0 
0 0 0 0 0 0 0 0 0 
0 0 0 0 0 0 0 0 0 
0 0 0 0 0 0 0 0 0 
0 0 0 0 0 0 0 0 0 
0 0 0 0 0 0 0 0 0 
0 0 0 0 0 0 0 0 0 
0 0 0 0 0 0 0 0 0 
0 0 0 
v 3 721 double
-0.176432 -0.479133 -3.07341 -0.150544 -0.34945 -1.76413 -0.00995307 -0.36973 -1.74717 
-0.235423 -0.349844 -1.66144 -0.0504897 -0.215186 -1.37905 -0.219404 -0.368802 -1.34574 
-0.0652621 -0.178092 -1.27012 -0.130769 -0.28505 -1.22032 0.110456 -0.254487 -1.1334 
0.0931829 -0.278324 -0.978951 0.119796 -0.234867 -0.974061 0.0372947 -0.0785268 -0.810058 
0.0320011 -0.30201 -0.618699 0.106629 -0.303408 -0.623356 -0.0723875 -0.258201 -0.537954 
0.161289 -0.384775 -0.526247 0.0225701 -0.264759 -0.483716 -0.0547895 -0.244818 -0.354318 
-0.0323058 -0.206745 -2.24888e-08 0.00527742 -0.179249 3.25833e-14 0.0729133 -0.191106 -4.64296e-14 
-0.157703 -0.152738 -7.80359e-14 -0.0883677 -0.164229 -5.43318e-14 0.0662837 -0.176141 -1.48249e-14 
0.077151 -0.155151 -1.48249e-14 0.190628 -0.180203 2.46819e-14 0.175599 -0.259601 7.99923e-14 
-0.163731 -0.131249 -4.64296e-14 -0.116977 -0.146521 -3.06277e-14 -0.0598722 -0.124393 9.77819e-16 
-0.0137142 -0.123754 -6.92356e-15 -0.0119715 -0.398375 9.77822e-16 0.0407966 -0.144687 -2.27271e-14 
0.116578 -0.107457 -6.92278e-15 0.0391133 -0.100647 4.83852e-14 -0.0712484 -0.178451 4.8386e-14 
-0.0261645 -0.126083 -7.80351e-14 0.152919 -0.112596 7.99923e-14 0.0441874 -0.142081 -2.27263e-14 
0.0437866 -0.209615 0.00167981 -0.0546401 -0.0989205 9.77824e-16 -0.0356301 -0.116554 -1.48249e-14 
-0.0834311 -0.129916 5.62874e-14 -0.0768347 -0.242228 8.87995e-15 0.0436919 -0.1947 -0.00502518 
0.127005 -0.163009 3.25825e-14 -0.0316076 -0.189082 -1.48249e-14 -0.146195 -0.170031 -7.80359e-14 
-0.00673701 -0.226771 -3.89415e-14 0.0749032 -0.13184 7.20901e-14 0.0308279 -0.0492269 -1.48249e-14 
-0.013493 -0.0783549 9.77811e-16 -0.0252605 -0.0719961 -7.01345e-14 0.0528025 -0.0461127 -7.01337e-14 
0.0193322 -0.0994086 7.20901e-14 0.428106 -0.354177 3.25833e-14 -0.207955 -0.100323 1.67805e-14 
-0.13632 -0.124816 -6.22331e-14 -0.0396429 -0.10637 -0.00858912 -0.0918492 -0.106058 -7.01337e-14 
-0.0515001 -0.0874587 5.62866e-14 -0.034662 -0.0924806 9.41378e-06 -0.0432342 -0.20498 -0.000224619 
-0.0113509 -0.129064 -3.06269e-14 0.00174516 -0.123609 -6.22331e-14 0.0819189 -0.0980738 -7.80359e-14 
-0.00892903 -0.0661718 2.43904e-14 0.00515081 -0.0958679 2.40219e-13 -0.0516919 -0.0955993 3.25825e-14 
-0.0644324 -0.0665074 0.0265796 0.010773 -0.170669 0.032381 0.00656257 -0.125271 1.67805e-14 
0.0489767 -0.134619 -8.59372e-14 -0.253979 -0.161806 -4.64288e-14 -0.255703 -0.270168 -0.0321824 
-0.0677278 -0.0574202 7.99923e-14 -0.0894671 -0.104577 -0.00193911 -0.0668285 -0.0977167 7.65928e-07 
-0.108736 -0.0856684 -7.01337e-14 -0.0696364 -0.0547327 -5.43325e-14 -0.0667761 -0.0631155 -8.59365e-14 
-0.26384 -0.0904289 -6.92355e-15 -0.0422761 -0.0507528 9.78597e-16 -0.053848 -0.0704437 -6.92278e-15 
-0.0408139 -0.0455225 7.99923e-14 -0.0638963 -0.086607 -7.80359e-14 0.0588844 -0.136375 0.000265532 
0.0520653 -0.148935 1.67798e-14 0.00600633 -0.147214 -6.22331e-14 0.111496 -0.112891 -0.00170777 
0.1155 -0.0691733 1.67805e-14 -0.0546993 -0.0744499 0.003267 0.00586757 -0.0705009 7.00972e-06 
0.0139567 -0.0998245 -4.64296e-14 0.0200348 -0.146984 -6.22331e-14 -0.11334 -0.159321 -1.47511e-06 
0.00458524 -0.0998242 -2.16394e-09 0.0599066 -0.113818 -2.27271e-14 0.145157 -0.0391725 -2.27271e-14 
0.00196938 -0.0449663 0.000964242 -0.00691276 -0.0406851 0.0041269 0.0115826 -0.146769 0.000540952 
0.0110105 -0.0768238 6.41888e-14 0.124499 -0.0363335 -8.59364e-14 0.121053 -0.027244 1.67798e-14 
0.180291 -0.0527374 2.01023e-07 -0.11584 -0.00639306 -1.85101e-06 -0.15924 -0.0459916 -0.0779136 
-0.0346976 -0.0266259 0.00893667 -0.00155041 -0.0411756 -0.0111212 -0.0054681 -0.0311512 0.00460885 
0.0146758 -0.0718356 -8.11654e-14 0.0626873 -0.0710382 0.000100349 0.0854402 -0.0442988 8.774e-06 
0.0381213 -0.0830949 -0.026882 -0.114304 -0.036751 -7.80359e-14 -0.138836 -0.0540601 -3.85298e-14 
-0.111967 0.0170613 3.88171e-08 -0.0545597 0.0650201 -0.0248666 0.00746459 -0.0347192 -0.109101 
0.06833 -0.0193172 0.000571748 0.0968225 -0.0631003 1.11775e-11 0.230746 -0.0350655 0.000697801 
-0.188917 -0.0741312 2.46827e-14 -0.0788297 -0.153578 -4.64288e-14 -0.0717492 -0.0273378 -6.92277e-15 
0.043314 -0.0266076 0.000797551 -0.0665779 -0.124515 0.0540984 -0.0319768 -0.124008 0.0181379 
0.0497023 0.00029465 0.111661 0.00136935 -0.0825001 0.0001435 0.0620421 -0.0610767 -0.00141436 
0.0323485 0.00111189 -0.000146287 0.0872588 -0.120187 5.41039e-08 0.0958519 -0.0769262 0.00379223 
0.0437232 0.0201288 -0.035134 0.131684 -0.0323039 -1.17287e-05 -0.0415474 -7.51233e-05 0.0069139 
0.0053744 -0.00677548 -0.000129072 0.0584163 0.0495146 -0.216363 0.0368517 -0.0696898 0.0446864 
0.0379421 -0.023137 -2.10181e-12 0.088473 -0.0432778 -0.0691124 0.0988508 -0.0655673 -0.000128319 
0.0333855 -0.0286963 -0.0369984 0.0978861 -0.0480946 -0.000890597 -0.129932 -0.0131509 -4.64296e-14 
-0.124962 -0.005877 -8.59365e-14 0.0618009 0.0641711 0.000809691 -0.0210233 0.0293637 5.97401e-05 
-0.102581 0.0792497 0.0123448 0.0452416 -0.0596314 -0.0657405 0.0953975 -0.0973424 -0.00988704 
0.0396716 -0.0328014 -0.00049366 0.209632 0.106036 -0.0397378 -0.422757 -0.124861 -3.49181e-09 
-0.08907 -0.0112752 -1.44006e-06 0.00375113 -0.0390503 0.0319789 -0.120694 -0.0310648 0.0070475 
-0.0814888 -0.036754 -0.0234462 0.037923 0.00768872 -0.0632306 0.00573906 -0.110806 -0.0092875 
0.119164 -0.128247 0.0312636 0.0146348 -0.0218262 -0.000190087 -0.0232984 -0.048581 0.0562013 
0.0620523 0.000649773 0.0131489 0.110329 0.0286604 -7.01345e-14 0.145883 0.00230105 4.04847e-14 
0.0100714 -0.0253423 1.22948e-05 -0.152383 -0.00313868 -6.22331e-14 -0.0534734 -0.0288889 2.88675e-09 
-0.0618661 0.014415 -6.92354e-15 -0.158241 -0.101972 0.0249733 -0.213317 0.0554203 0.000727464 
-0.16845 0.0338623 0.0261997 -0.0888228 0.024285 4.27415e-13 -0.155379 0.00727067 -0.0461232 
0.0131914 -0.0623379 0.00076932 -0.0860251 0.0478177 0.01885 0.029664 0.0354912 -0.0201773 
-0.0197999 -0.0159534 0.00122007 -0.116789 0.105711 -0.0600312 -0.0926099 0.0536365 -0.00879048 
0.070421 -0.0414645 -0.0187157 0.103245 -0.0212831 -0.0010155 0.100257 0.00280619 -6.92277e-15 
0.120995 -0.0520759 -0.00144652 0.141297 -0.0149811 -6.92355e-15 -0.152815 0.0208366 -4.64288e-14 
-0.196604 -0.111233 -0.000565579 -0.0867779 0.0414463 -3.99729e-12 -0.0809101 0.0654212 0.0215253 
-0.102919 -0.00562945 0.00662365 0.0401896 -0.0298455 -0.0671034 0.116662 -0.0541113 -0.00826341 
0.119178 0.0803878 -2.27271e-14 -0.0530407 -0.0665759 -5.88616e-14 -0.059266 -0.0154452 9.77815e-16 
-0.0571233 -0.00301208 -2.34071e-09 -0.0274351 0.0260669 3.17306e-05 -0.0997651 0.0275383 1.61252e-05 
-0.0948648 0.0108359 0.039934 0.162845 0.160252 0.121215 -0.00680801 -0.0121665 -1.79679e-12 
0.0711351 -0.0292308 2.24247e-06 0.107068 -0.0352968 -4.41097e-13 0.105486 -0.0259878 4.22496e-13 
-0.123357 0.00969163 4.04854e-14 -0.0721923 -0.00892092 -1.46393e-06 -0.072562 -0.0164638 -1.52266e-06 
-0.0238918 -0.00882577 0.0011189 -0.0486384 0.0301953 -2.5479e-12 0.0492437 0.00995376 0.11919 
0.0380214 -0.0506725 0.0229312 0.0590528 0.0293362 0.0154401 0.0359731 -0.00264241 -4.70551e-06 
-0.0565542 -0.0210589 -0.000204564 0.0410595 0.0401693 -0.00877532 -0.0407287 -0.0311757 5.83224e-05 
0.106257 0.0186676 -1.61111e-09 0.0462951 0.03162 5.79536e-05 0.146401 0.043729 0.0199465 
0.00131901 -0.00689463 1.45736e-09 -0.0114335 0.0435265 -1.5617e-06 -0.0990509 -0.0345572 7.79537e-05 
-0.0537321 0.0163501 2.12587e-11 -0.0779842 0.0203928 -2.69694e-12 -0.0816159 0.0174947 -0.0331003 
0.0107539 -0.0118698 -3.37641e-05 -0.0444755 0.0418992 0.0224753 -0.0326243 -0.012628 0.0158735 
0.0303215 0.0197269 -0.000783942 -0.00796265 -0.0296122 0.0551383 0.141747 0.0284906 -4.64288e-14 
-0.134115 0.00937751 -6.39549e-14 -0.124184 -0.0732648 0.0312642 -0.106974 0.0702211 -0.000995571 
-0.0752175 0.0332731 -0.000840613 -0.0248491 -0.00561988 -0.000243942 0.030674 0.0138202 0.00773483 
0.00973931 0.00235788 8.06579e-06 0.00430043 -0.00717526 -0.000625827 0.0385227 0.0266042 0.00418312 
-0.0242631 -0.0169439 0.0904535 0.10495 0.0623778 0.00413579 0.029043 0.0933055 -5.58625e-10 
0.200273 -0.00124252 -3.89568e-06 0.120675 0.00355795 -4.64296e-14 0.154376 -0.053045 9.77819e-16 
-0.0676091 -0.0425012 0.0215628 -0.0873903 0.0405202 -6.59489e-05 -0.0594158 0.0785675 -1.1553e-08 
0.0286024 0.0447373 0.0193433 0.008584 0.00344815 6.33034e-06 0.0582666 0.0466714 0.000158973 
0.160756 -0.0596127 0.108191 0.0466299 0.072668 0.0661959 0.149359 0.076944 5.27368e-08 
-0.167766 0.0350649 7.20901e-14 -0.131529 0.0140634 0.0274908 -0.0197201 0.0251969 0.0046317 
0.122689 0.0637616 -0.00775717 0.0713844 -0.0200255 -0.493766 0.0506059 0.0752031 6.41895e-14 
0.00760289 0.0819453 0.00194711 -0.0287872 0.0645154 3.11348e-14 0.136851 -0.040046 0.00492036 
0.174805 -0.00763401 -0.000179132 0.00641046 0.021477 -7.01337e-14 0.0430987 0.0440392 8.87996e-15 
-0.117981 0.228953 0.0894157 -0.115222 0.155623 0.0479619 -0.0174931 0.0423817 -0.000268435 
-0.0196505 0.0034997 0.00454444 -0.103655 0.0381617 0.0811397 0.10794 0.101998 -1.5432e-07 
0.133324 0.0768011 -5.10472e-09 -0.0496264 0.0324816 4.83852e-14 -0.0600876 0.0420118 3.64408e-08 
-0.0227466 0.0131217 8.87996e-15 -0.112584 0.134865 2.64572e-08 0.0125296 0.0398241 -3.46279e-13 
0.00349948 0.0396701 0.000175745 0.00959076 0.0692568 -5.43318e-14 0.0182787 0.136507 -0.0374172 
0.156287 0.061852 -4.39821e-10 0.0994532 0.076691 -7.80351e-14 0.015963 0.046558 -5.43325e-14 
-0.0517196 0.0318749 -4.64288e-14 -0.0603841 0.0798382 -3.06276e-14 -0.0340348 0.0463156 7.99923e-14 
-0.0210248 0.0405609 -6.92355e-15 -0.0703209 0.120567 -0.00835872 0.0159768 0.0473629 -4.64288e-14 
0.00543009 0.0493598 -1.6345e-09 -0.0156691 0.0756365 -0.000239408 0.0361515 0.159258 0.00768772 
0.0937027 0.0603187 -6.41453e-14 -0.0553639 0.0889158 -2.27271e-14 -0.0250896 0.0874159 6.41888e-14 
-0.0168686 0.082855 4.04854e-14 -0.0132102 0.07705 -2.27263e-14 -0.0174725 0.127991 0.000392051 
0.0252544 0.118793 -5.35758e-10 0.0229764 0.0836366 4.11862e-10 0.00372034 0.0885594 1.67805e-14 
0.100814 0.187354 -0.0182095 0.0987676 0.0892376 -0.000106482 0.0878506 0.0487114 0.0211692 
0.074992 0.0527637 -3.50686e-10 0.0989538 0.0604717 -0.000456861 -0.0688001 0.0874236 -7.01345e-14 
-0.0637864 0.0710961 -5.43325e-14 -0.00384716 0.0893173 -0.0521328 0.0605886 0.0360944 -1.00275e-05 
0.0665246 0.0978278 2.46827e-14 0.0845367 0.147815 2.46827e-14 0.0267461 0.128153 -4.64296e-14 
-0.0723146 0.10641 -7.80358e-14 0.00104241 0.0436269 -4.52659e-11 0.0497942 0.112957 -7.80351e-14 
-0.00214722 0.196937 -1.48249e-14 0.273053 0.12427 3.25833e-14 0.00131626 0.0799643 -8.59372e-14 
-0.0368624 0.116567 -7.80351e-14 0.0663358 0.0839818 -6.92355e-15 0.00876706 0.0946227 6.01137e-10 
-0.0157026 0.112592 7.99915e-14 -0.0786047 0.0960862 -3.06276e-14 0.00696548 0.234149 -7.01347e-14 
-0.014594 0.130663 -1.639e-08 0.035263 0.0580896 6.61201e-08 0.106739 0.0813037 8.87918e-15 
0.0854855 0.0865169 1.67805e-14 0.202941 0.178992 -5.43325e-14 -0.041004 0.0866999 5.62866e-14 