# vtk DataFile Version 4.0
Generated by LIGGGHTS
ASCII
DATASET POLYDATA
POINTS 1151 float
0.0554408 -0.163441 -0.484311 -0.0751796 -0.157736 -0.461495 -0.0176597 -0.214578 -0.394742 
0.118927 -0.173964 -0.386982 0.00157583 -0.18273 -0.383202 -0.0245912 -0.1576 -0.384907 
0.0626411 -0.152836 -0.363543 -0.0955952 -0.150466 -0.351541 0.013076 -0.147735 -0.33642 
-0.0166892 -0.157716 -0.331838 -0.0354865 -0.149685 -0.302855 0.0597194 -0.143254 -0.284323 
0.12035 -0.143891 -0.279529 -0.0367055 -0.137951 -0.274856 0.091598 -0.175183 -0.266756 
-0.076091 -0.137769 -0.247903 -0.090701 -0.138046 -0.246214 0.0216067 -0.136346 -0.243943 
0.0689796 -0.135366 -0.243297 -0.0825613 -0.136145 -0.215689 -0.0207522 -0.148162 -0.182591 
-0.0299317 -0.135237 -0.179781 -0.104893 -0.128371 -0.172308 0.00904634 -0.139677 -0.138792 
-0.0460244 -0.121351 -0.132799 0.0428189 -0.130223 -0.130627 0.0388315 -0.124009 -0.12347 
0.0209657 -0.12156 -0.0999718 -0.0248097 -0.117961 -0.0916195 0.0950781 -0.121066 -0.0703953 
0.0688786 -0.121105 -0.0661685 0.0954584 -0.117624 -0.0667098 0.0392501 -0.117162 -0.0599847 
0.0979739 -0.115457 -0.058165 -0.0283469 -0.121421 -0.0553452 -0.102127 -0.119347 -0.0520055 
0.0111143 -0.113781 -0.0469647 -0.0912782 -0.109258 -0.0501241 -0.0343109 -0.114091 -0.038492 
0.0929175 -0.113495 -0.0340014 -0.0928273 -0.116631 -0.0301438 -0.0271767 -0.111413 -0.0196626 
0.0375697 -0.10939 -0.016085 0.0920269 -0.113905 -0.00968962 -0.0303665 -0.106924 -0.00295802 
-0.024834 -0.116064 -0.00161959 0.0253497 -0.106174 0.0020973 0.07584 -0.105717 0.00232301 
0.0939454 -0.104123 0.0034095 -0.0898164 -0.10411 0.00813011 -0.0309905 -0.102546 0.00896375 
-0.0903114 -0.098135 0.0114983 -0.0416835 -0.0978549 0.0114983 0.000943916 -0.0991636 0.0114983 
-0.0686154 -0.0955013 0.0114983 0.00465124 -0.0965694 0.0114983 0.00890873 -0.0951364 0.0114983 
0.0301845 -0.0969618 0.0114983 -0.0697492 -0.0903581 0.0114983 0.0136132 -0.0916036 0.0114983 
0.0166683 -0.0920997 0.0114983 0.0399467 -0.0925135 0.0114983 -0.0855281 -0.0862703 0.0114983 
-0.0262216 -0.0872257 0.0114983 -0.0182045 -0.0898522 0.0114983 0.0146677 -0.0868855 0.0114983 
0.0880381 -0.0873576 0.0114983 -0.0295417 -0.0839895 0.0117391 -0.0959427 -0.0809289 0.0114983 
-0.0922431 -0.0821836 0.0114983 -0.0733486 -0.0816822 0.0114983 -0.060804 -0.0821452 0.0114983 
-0.0553127 -0.0818871 0.0114983 -0.0494112 -0.0798035 0.0114983 -0.0475351 -0.0826368 0.0114983 
-0.0223878 -0.0800157 0.0114983 0.0150256 -0.0825308 0.0114983 -0.0761832 -0.0761939 0.0114983 
-0.0721291 -0.0786938 0.0114983 -0.0419923 -0.0795982 0.0114983 -0.0364738 -0.0767636 0.0114983 
0.0094516 -0.0770972 0.0114983 0.071616 -0.0779964 0.0114983 -0.0959731 -0.0722866 0.0114983 
0.0321926 -0.0737529 0.0114983 -0.0959523 -0.0686481 0.0114983 0.0149038 -0.0714827 0.0114983 
0.0179485 -0.0708743 0.0114983 0.0388941 -0.0709428 0.0114983 0.0527856 -0.0711248 0.0114983 
-0.0955722 -0.0656367 0.0114983 -0.0689897 -0.065497 0.0114983 -0.0520087 -0.0670047 0.0114983 
-0.0434928 -0.0667335 0.0114983 -0.0245128 -0.0672693 0.0114983 -0.00477828 -0.0674637 0.0114983 
0.00782922 -0.0665271 0.0114983 0.0187171 -0.0671646 0.0114983 0.0223955 -0.0656921 0.0115059 
0.040583 -0.0671642 0.0114983 -0.0495756 -0.0633124 0.0114983 -0.00891439 -0.0634896 0.0114983 
0.00167827 -0.0630531 0.0114983 0.0179645 -0.0622211 0.0114983 0.0510614 -0.0660669 0.0114983 
-0.0944981 -0.0613918 0.011494 -0.0919857 -0.0597627 0.011508 -0.0433294 -0.0612426 0.0114983 
-0.0195088 -0.0618367 0.0114983 0.0148488 -0.0611747 0.0114983 0.0437414 -0.0611525 0.0114983 
0.0591321 -0.0614709 0.0114983 -0.0909415 -0.0548565 0.0114983 -0.0493776 -0.0567755 0.0114983 
0.00472425 -0.0547135 0.0114983 0.0146456 -0.058013 0.0114983 0.0423033 -0.0582477 0.0114983 
0.0704203 -0.0575312 0.0114983 -0.00901997 -0.0521724 0.0114983 0.000850963 -0.0518148 0.0114983 
0.0150072 -0.0543378 0.0114983 0.019319 -0.0517971 0.0114983 0.0324674 -0.0538477 0.0114983 
0.0375496 -0.0541971 0.011498 0.0479007 -0.0517269 0.0114983 0.0952891 -0.0545531 0.0114983 
-0.0563215 -0.0484206 0.0114983 -0.0466893 -0.0491068 0.0114983 -0.0110605 -0.0497509 0.0114983 
-0.0024551 -0.0477036 0.0114983 0.0144478 -0.0513324 0.0114983 0.0299304 -0.048451 0.0114983 
0.0371647 -0.0488729 0.0114983 0.0510227 -0.0514629 0.0114983 0.0865169 -0.0478053 0.0114983 
-0.0524095 -0.0475703 0.0114983 -0.0388885 -0.045221 0.0114983 -0.0107728 -0.0466244 0.0114984 
-0.00418216 -0.0452488 0.0114979 0.000590952 -0.047193 0.0114983 0.00414472 -0.0472561 0.0114983 
0.00384467 -0.0442409 0.0114983 0.018315 -0.0460507 0.0114983 0.0213169 -0.047098 0.0114983 
0.05108 -0.0454611 0.0114983 -0.0563495 -0.0433378 0.0114983 -0.014044 -0.040968 0.0114983 
-0.0118902 -0.0432803 0.0114983 -0.00296198 -0.0425094 0.0114974 -0.000377842 -0.0440345 0.0115001 
0.00119636 -0.0413036 0.0114984 0.00999459 -0.0412324 0.0114983 0.0124193 -0.0430967 0.0114983 
0.0337473 -0.0433136 0.0114983 0.0670974 -0.0433068 0.0114983 0.0758338 -0.0416534 0.0114983 
-0.0889969 -0.038378 0.0114983 -0.0759777 -0.0388155 0.0114983 -0.0107261 -0.0405128 0.0114983 
-0.00850652 -0.037795 0.0114983 0.00234226 -0.0380945 0.0114983 0.0109647 -0.038177 0.0115259 
0.0132168 -0.0401577 0.011498 0.0165154 -0.0388795 0.0114983 0.0308718 -0.0382324 0.0114983 
0.0466273 -0.0402993 0.0114983 0.0643404 -0.0403915 0.0114983 0.0669537 -0.0387663 0.0114983 
0.0703063 -0.0391138 0.0114983 0.0890426 -0.0405851 0.0114983 0.0959447 -0.0393265 0.0114983 
-0.0402095 -0.0365888 0.0114983 -0.036463 -0.0365339 0.0114983 -0.0185215 -0.0353065 0.0114984 
-0.00568801 -0.035165 0.0114943 0.0132453 -0.0339954 0.0115017 0.0172318 -0.0359012 0.0114983 
0.0279731 -0.0364045 0.0114983 0.0403284 -0.0369567 0.0122979 0.0434519 -0.0373426 0.0114984 
0.048331 -0.0351434 0.0114983 0.0904936 -0.0336265 0.0114983 0.0958819 -0.0362238 0.0114983 
-0.096003 -0.030751 0.0114988 -0.0427801 -0.0330066 0.0114983 -0.0385726 -0.0335706 0.0114983 
-0.0341392 -0.0323632 0.011504 -0.00030426 -0.0320927 0.0114983 0.00250704 -0.0305321 0.0114914 
0.00838968 -0.0323553 0.0114999 0.0112792 -0.0315606 0.0115471 0.0153553 -0.0300339 0.0114983 
0.0174855 -0.0326646 0.0114984 0.0438288 -0.0311593 0.0114981 0.0528131 -0.0302438 0.0114983 
0.0579977 -0.0327866 0.0114983 -0.0881083 -0.0291924 0.0114983 -0.0666669 -0.0270466 0.0114983 
-0.038459 -0.0296216 0.0115128 -0.0354168 -0.0296385 0.0117386 -0.0299203 -0.0302235 0.0117455 
-0.0103929 -0.0293465 0.0114983 0.00284058 -0.0268506 0.0115042 0.00667407 -0.0271528 0.0114983 
0.0120597 -0.0285176 0.0114983 0.0286471 -0.0282605 0.0114985 0.0322187 -0.0293902 0.0114983 
0.0373506 -0.029614 0.0114983 0.0350727 -0.0275002 0.0114983 0.0403999 -0.0268363 0.0115669 
0.0411775 -0.0297391 0.0115154 0.0556937 -0.0283309 0.0114983 0.0625248 -0.0278512 0.0114983 
-0.0856535 -0.0254497 0.0114983 -0.0503946 -0.0234154 0.0114983 -0.0458936 -0.0236267 0.0114983 
-0.020572 -0.0238719 0.0114983 0.00107689 -0.0242904 0.0114979 0.00488566 -0.0246171 0.0115068 
0.049538 -0.0256581 0.0114983 -0.0777317 -0.0206461 0.0114983 -0.0621141 -0.0194748 0.0114983 
-0.047913 -0.0210156 0.0114967 -0.0449206 -0.0206908 0.0116791 -0.0419599 -0.0225761 0.0114983 
-0.0418253 -0.0192568 0.0115622 -0.03458 -0.0207788 0.0114983 -0.0219533 -0.0200469 0.0114983 
-0.0185047 -0.0206453 0.011495 -0.0151985 -0.0212241 0.0114983 -0.0118558 -0.0215386 0.0115225 
-0.00766773 -0.021426 0.0117111 0.00375359 -0.0213996 0.0114983 0.00848021 -0.0208093 0.0118728 
0.017062 -0.0226972 0.0114984 0.0298583 -0.0209014 0.011491 0.0329383 -0.021754 0.0116341 
0.04083 -0.0228326 0.0114983 0.0462064 -0.0213089 0.0114983 0.0958021 -0.0221821 0.0114983 
-0.0959547 -0.0166108 0.0114983 -0.0728871 -0.0156609 0.0114983 -0.0563156 -0.0163366 0.0114983 
-0.0210196 -0.0166153 0.0114995 -0.0121263 -0.0182877 0.0115254 -0.00867935 -0.0185389 0.0116042 
-0.004905 -0.0182295 0.0118098 0.00264827 -0.0175247 0.0114983 0.0127773 -0.0175206 0.0115109 
0.0407506 -0.0192955 0.0114988 0.0552473 -0.0194268 0.0114983 0.0771615 -0.0187075 0.0114983 
-0.0931846 -0.0152337 0.0114984 -0.0904432 -0.0139948 0.0114983 -0.0808261 -0.0134389 0.0114983 
-0.0677878 -0.0134149 0.0114983 -0.0472099 -0.0157219 0.0114983 -0.0421199 -0.015293 0.0114983 
-0.0402996 -0.0125027 0.0114983 -0.033181 -0.014314 0.0115017 -0.026875 -0.0145855 0.0114983 
-0.0220918 -0.0134599 0.0114983 -0.0183335 -0.0140932 0.0114983 -0.0121979 -0.0152866 0.0115005 
-0.0039172 -0.0148399 0.0114354 0.00471747 -0.015273 0.0114998 0.0178852 -0.0132869 0.0123453 
0.0423877 -0.0127265 0.0114983 -0.0959825 -0.0118762 0.0114983 -0.0914997 -0.0101376 0.0114983 
-0.082639 -0.0107928 0.0114983 -0.0705788 -0.00891244 0.0114983 -0.0641768 -0.00959927 0.0114983 
-0.0497745 -0.0124978 0.0117902 -0.0340759 -0.0111349 0.0114983 -0.0297209 -0.010416 0.0115055 
-0.0218022 -0.00896506 0.0115133 -0.0169191 -0.0113458 0.0114983 -0.0149865 -0.00899929 0.0114975 
-0.00860342 -0.0123055 0.0114985 -0.00526317 -0.0121797 0.0115248 0.00975563 -0.00893505 0.0114983 
0.0158014 -0.0103213 0.0119887 0.0331026 -0.0124807 0.0114983 0.0448187 -0.0107138 0.0114983 
0.0478096 -0.0116447 0.0114983 0.0710184 -0.0121817 0.0114983 0.0858921 -0.0108064 0.011527 
0.095713 -0.00902562 0.0114983 -0.0914509 -0.00560255 0.0114983 -0.0737141 -0.00779348 0.0114983 
-0.0656695 -0.00529021 0.0114983 -0.0459964 -0.00661146 0.0114983 -0.0427891 -0.00823788 0.0114981 
-0.0394614 -0.00729193 0.0114983 -0.0306052 -0.00684643 0.0114983 -0.0187014 -0.00869127 0.0114983 
-0.0146765 -0.00601682 0.0114993 -0.00655063 -0.00889627 0.0114983 0.00711571 -0.0070938 0.0115562 
0.0139521 -0.00770844 0.0115076 0.0187213 -0.00833882 0.0114985 0.0370803 -0.00752138 0.0114988 
0.0420651 -0.00835301 0.0114984 0.0428224 -0.00545385 0.0114983 0.0715128 -0.00702567 0.0114983 
0.087659 -0.007064 0.0115095 0.0913825 -0.00819119 0.0114983 0.0959945 -0.00598221 0.0114972 
-0.095256 -0.00208834 0.0114983 -0.0842144 -0.00448994 0.0114983 -0.0802425 -0.00462365 0.0114983 
[...]
POINT_DATA 1151
FIELD FieldData 7
id 1 1151 int
2 4 386 189 416 324 265 9 112 
154 262 10 200 119 526 229 137 222 
393 258 406 267 252 514 73 76 173 
68 83 319 260 125 328 50 498 242 
108 343 375 132 290 307 110 144 168 
862 529 97 19 541 8 353 18 192 
283 333 458 418 281 475 101 75 591 
90 161 487 11 85 71 358 409 378 
32 152 268 523 588 202 489 371 308 
263 63 179 559 45 438 433 251 525 
47 425 314 240 726 546 214 729 615 
109 665 540 638 743 550 107 205 218 
352 566 139 524 598 502 867 339 626 
807 460 602 496 587 898 922 785 23 
476 695 172 666 123 784 835 603 448 
600 935 744 120 694 885 127 469 821 
643 719 947 782 578 521 828 571 612 
599 482 630 211 197 880 830 72 809 
755 611 340 773 753 500 610 292 249 
718 760 962 734 677 535 443 968 930 
854 305 164 436 320 843 879 185 857 
957 998 679 669 767 681 560 495 344 
871 1049 1061 844 733 459 294 278 847 
849 816 1015 798 667 366 368 25 818 
126 444 380 705 693 510 721 572 884 
997 887 617 951 146 1023 794 373 706 
728 820 689 808 793 507 114 663 527 
150 1036 701 704 715 456 656 614 346 
153 174 84 561 795 756 772 970 499 
653 973 810 395 533 288 988 217 64 
227 36 315 950 303 996 934 921 639 
912 846 244 1001 279 574 861 585 355 
295 239 651 575 768 250 893 975 911 
757 765 986 1021 770 652 834 163 562 
538 257 201 74 501 412 474 919 908 
974 592 987 946 945 882 690 739 302 
420 411 384 771 226 162 796 883 948 
976 745 938 961 1027 703 447 899 858 
601 334 289 625 472 564 960 275 484 
731 931 783 759 573 687 253 228 96 
624 918 511 869 727 897 833 579 210 
204 488 842 1025 817 829 637 616 532 
860 803 886 742 213 522 369 548 61 
291 553 404 432 264 407 873 845 944 
972 707 781 740 342 577 316 936 746 
642 293 920 341 872 485 539 537 563 
545 758 136 165 280 329 819 933 332 
1010 552 982 1038 1093 296 1075 360 392 
597 199 836 855 895 932 741 266 823 
497 1079 1105 766 586 86 419 678 345 
640 714 468 359 805 806 702 832 33 
604 754 668 791 779 1062 822 896 431 
856 558 1077 1034 786 892 590 424 676 
655 133 277 178 963 576 989 230 662 
190 680 999 1011 717 198 868 584 732 
959 565 958 589 231 674 900 848 605 
421 881 907 925 909 654 906 461 309 
276 636 434 370 716 331 547 520 792 
613 692 513 508 691 549 140 708 780 
628 720 894 534 629 471 445 874 675 
641 408 631 450 330 422 102 618 866 
811 151 486 435 483 859 804 649 650 
797 769 462 22 171 357 688 457 186 
379 100 430 519 318 87 255 385 354 
38 383 238 536 551 382 49 304 405 
317 463 270 70 381 321 437 269 470 
870 682 664 166 124 21 215 241 396 
187 423 51 60 327 99 148 398 159 
223 149 191 57 58 237 747 372 65 
111 306 122 176 177 212 20 88 394 
254 147 446 399 449 95 62 34 203 
256 135 98 216 509 134 410 138 13 
7 224 113 26 188 37 35 24 367 
175 225 46 39 301 184 261 167 300 
285 325 634 92 348 481 313 142 841 
156 336 635 594 477 583 464 42 413 
506 494 568 365 528 467 593 155 750 
15 581 389 414 623 439 595 129 710 
16 543 518 452 737 387 827 219 40 
812 364 337 953 235 402 248 67 157 
1000 14 787 984 863 284 877 825 141 
335 403 442 995 698 926 723 914 1066 
417 504 323 660 1024 814 1020 632 1009 
1041 671 29 91 800 455 712 979 851 
801 415 247 274 193 644 473 657 1115 
850 170 966 709 633 131 903 1028 246 
978 1030 927 1065 981 902 376 207 3 
181 465 391 954 937 1083 736 115 286 
1017 943 1039 648 619 840 686 79 429 
683 347 955 1052 924 326 1050 824 724 
351 361 94 949 531 557 582 776 1056 
910 940 1008 749 661 158 983 670 1099 
1043 865 967 1064 390 1078 1117 839 517 
441 362 696 684 713 831 1089 596 672 
609 1104 789 1103 1037 722 1040 311 622 
1095 427 838 992 913 965 890 271 350 
777 121 1042 711 917 788 646 659 221 
608 183 876 889 730 1022 799 764 905 
180 700 480 245 762 627 969 27 763 
971 606 492 802 491 451 505 232 41 
195 81 647 748 1045 852 1013 1086 544 
298 117 567 466 964 1059 1074 66 1048 
1003 1016 685 735 388 236 145 813 751 
985 980 1088 1032 901 1019 1051 752 5 
580 440 490 864 775 106 555 699 645 
143 994 928 516 929 17 338 774 259 
875 738 1026 454 1007 891 209 530 55 
837 570 853 607 621 673 697 542 620 
1002 761 426 493 116 815 53 220 169 
322 778 377 939 287 515 54 428 103 
272 826 790 349 43 658 478 310 273 
400 942 888 93 196 725 128 299 556 
312 554 69 80 297 569 233 44 401 
182 453 130 374 479 503 194 28 1 
118 234 56 104 78 31 1006 1057 1067 
1068 916 1102 1071 1012 1106 923 1112 878 
1101 1114 991 1108 1087 1055 1031 1063 1080 
977 1046 1092 1054 1058 1076 993 1085 941 
1111 1113 1081 1100 1033 1018 1060 956 1004 
990 915 1091 1107 1110 512 1116 1084 1014 
1094 952 1005 1073 1053 1072 904 1044 1098 
1119 1109 1124 1035 1069 1129 1090 1047 1096 
1082 1097 1121 1130 1070 1128 1126 1120 1123 
1125 1122 1127 1118 1138 1135 1133 1142 1141 
1134 1140 1132 1137 1139 1131 1136 1143 1029 
1145 1152 1155 1148 1150 1147 1156 1154 1151 
1146 1144 1153 1149 1166 1157 1165 1168 1167 
1169 1163 1162 1160 1164 1159 1161 1158 
type 1 1151 int
1 1 1 1 1 1 1 1 1 
1 1 1 1 1 1 1 1 1 
1 1 1 1 1 1 1 1 1 
1 1 1 1 1 1 1 1 1 
1 1 1 1 1 1 1 1 1 
1 1 1 1 1 1 1 1 1 
1 1 1 1 1 1 1 1 1 
1 1 1 1 1 1 1 1 1 
1 1 1 1 1 1 1 1 1 
1 1 1 1 1 1 1 1 1 
1 1 1 1 1 1 1 1 1 
1 1 1 1 1 1 1 1 1 
1 1 1 1 1 1 1 1 1 
1 1 1 1 1 1 1 1 1 
1 1 1 1 1 1 1 1 1 
1 1 1 1 1 1 1 1 1 
1 1 1 1 1 1 1 1 1 
1 1 1 1 1 1 1 1 1 
1 1 1 1 1 1 1 1 1 
1 1 1 1 1 1 1 1 1 
1 1 1 1 1 1 1 1 1 
1 1 1 1 1 1 1 1 1 
1 1 1 1 1 1 1 1 1 
1 1 1 1 1 1 1 1 1 
1 1 1 1 1 1 1 1 1 
1 1 1 1 1 1 1 1 1 
1 1 1 1 1 1 1 1 1 
1 1 1 1 1 1 1 1 1 
1 1 1 1 1 1 1 1 1 
1 1 1 1 1 1 1 1 1 
1 1 1 1 1 1 1 1 1 
1 1 1 1 1 1 1 1 1 
1 1 1 1 1 1 1 1 1 
1 1 1 1 1 1 1 1 1 
1 1 1 1 1 1 1 1 1 
1 1 1 1 1 1 1 1 1 
1 1 1 1 1 1 1 1 1 
1 1 1 1 1 1 1 1 1 
1 1 1 1 1 1 1 1 1 
1 1 1 1 1 1 1 1 1 
1 1 1 1 1 1 1 1 1 
1 1 1 1 1 1 1 1 1 
1 1 1 1 1 1 1 1 1 
1 1 1 1 1 1 1 1 1 
1 1 1 1 1 1 1 1 1 
1 1 1 1 1 1 1 1 1 
1 1 1 1 1 1 1 1 1 
1 1 1 1 1 1 1 1 1 
1 1 1 1 1 1 1 1 1 
1 1 1 1 1 1 1 1 1 
1 1 1 1 1 1 1 1 1 
1 1 1 1 1 1 1 1 1 
1 1 1 1 1 1 1 1 1 
1 1 1 1 1 1 1 1 1 
1 1 1 1 1 1 1 1 1 
1 1 1 1 1 1 1 1 1 
1 1 1 1 1 1 1 1 1 
1 1 1 1 1 1 1 1 1 
1 1 1 1 1 1 1 1 1 
1 1 1 1 1 1 1 1 1 
1 1 1 1 1 1 1 1 1 
1 1 1 1 1 1 1 1 1 
1 1 1 1 1 1 1 1 1 
1 1 1 1 1 1 1 1 1 
1 1 1 1 1 1 1 1 1 
1 1 1 1 1 1 1 1 1 
1 1 1 1 1 1 1 1 1 
1 1 1 1 1 1 1 1 1 
1 1 1 1 1 1 1 1 1 
1 1 1 1 1 1 1 1 1 
1 1 1 1 1 1 1 1 1 
1 1 1 1 1 1 1 1 1 
1 1 1 1 1 1 1 1 1 
1 1 1 1 1 1 1 1 1 
1 1 1 1 1 1 1 1 1 
1 1 1 1 1 1 1 1 1 
1 1 1 1 1 1 1 1 1 
1 1 1 1 1 1 1 1 1 
1 1 1 1 1 1 1 1 1 
1 1 1 1 1 1 1 1 1 
1 1 1 1 1 1 1 1 1 
1 1 1 1 1 1 1 1 1 
1 1 1 1 1 1 1 1 1 
1 1 1 1 1 1 1 1 1 
1 1 1 1 1 1 1 1 1 
1 1 1 1 1 1 1 1 1 
1 1 1 1 1 1 1 1 1 
1 1 1 1 1 1 1 1 1 
1 1 1 1 1 1 1 1 1 
1 1 1 1 1 1 1 1 1 
1 1 1 1 1 1 1 1 1 
1 1 1 1 1 1 1 1 1 
1 1 1 1 1 1 1 1 1 
1 1 1 1 1 1 1 1 1 
1 1 1 1 1 1 1 1 1 
1 1 1 1 1 1 1 1 1 
1 1 1 1 1 1 1 1 1 
1 1 1 1 1 1 1 1 1 
1 1 1 1 1 1 1 1 1 
1 1 1 1 1 1 1 1 1 
1 1 1 1 1 1 1 1 1 
1 1 1 1 1 1 1 1 1 
1 1 1 1 1 1 1 1 1 
1 1 1 1 1 1 1 1 1 
1 1 1 1 1 1 1 1 1 
1 1 1 1 1 1 1 1 1 
1 1 1 1 1 1 1 1 1 
1 1 1 1 1 1 1 1 1 
1 1 1 1 1 1 1 1 1 
1 1 1 1 1 1 1 1 1 
1 1 1 1 1 1 1 1 1 
1 1 1 1 1 1 1 1 1 
1 1 1 1 1 1 1 1 1 
1 1 1 1 1 1 1 1 1 
1 1 1 1 1 1 1 1 1 
1 1 1 1 1 1 1 1 1 
1 1 1 1 1 1 1 1 1 
1 1 1 1 1 1 1 1 1 
1 1 1 1 1 1 1 1 1 
1 1 1 1 1 1 1 1 1 
1 1 1 1 1 1 1 1 1 
1 1 1 1 1 1 1 1 1 
1 1 1 1 1 1 1 1 1 
1 1 1 1 1 1 1 1 1 
1 1 1 1 1 1 1 1 1 
1 1 1 1 1 1 1 1 1 
1 1 1 1 1 1 1 1 1 
1 1 1 1 1 1 1 1 
i 3 1151 int
0 0 0 0 0 0 0 0 0 
0 0 0 0 0 0 0 0 0 
0 0 0 0 0 0 0 0 0 
0 0 0 0 0 0 0 0 0 
0 0 0 0 0 0 0 0 0 
0 0 0 0 0 0 0 0 0 
0 0 0 0 0 0 0 0 0 
0 0 0 0 0 0 0 0 0 
0 0 0 0 0 0 0 0 0 
0 0 0 0 0 0 0 0 0 
0 0 0 0 0 0 0 0 0 
0 0 0 0 0 0 0 0 0 
0 0 0 0 0 0 0 0 0 
0 0 0 0 0 0 0 0 0 
0 0 0 0 0 0 0 0 0 
0 0 0 0 0 0 0 0 0 
0 0 0 0 0 0 0 0 0 
0 0 0 0 0 0 0 0 0 
0 0 0 0 0 0 0 0 0 
0 0 0 0 0 0 0 0 0 
0 0 0 0 0 0 0 0 0 
0 0 0 0 0 0 0 0 0 
0 0 0 0 0 0 0 0 0 
0 0 0 0 0 0 0 0 0 
0 0 0 0 0 0 0 0 0 
0 0 0 0 0 0 0 0 0 
0 0 0 0 0 0 0 0 0 
0 0 0 0 0 0 0 0 0 
0 0 0 0 0 0 0 0 0 
0 0 0 0 0 0 0 0 0 
0 0 0 0 0 0 0 0 0 
0 0 0 0 0 0 0 0 0 
0 0 0 0 0 0 0 0 0 
0 0 0 0 0 0 0 0 0 
0 0 0 0 0 0 0 0 0 
0 0 0 0 0 0 0 0 0 
0 0 0 0 0 0 0 0 0 
0 0 0 0 0 0 0 0 0 
0 0 0 0 0 0 0 0 0 
0 0 0 0 0 0 0 0 0 
0 0 0 0 0 0 0 0 0 
0 0 0 0 0 0 0 0 0 
0 0 0 0 0 0 0 0 0 
0 0 0 0 0 0 0 0 0 
0 0 0 0 0 0 0 0 0 
0 0 0 0 0 0 0 0 0 
0 0 0 0 0 0 0 0 0 
0 0 0 0 0 0 0 0 0 
0 0 0 0 0 0 0 0 0 
0 0 0 0 0 0 0 0 0 
0 0 0 0 0 0 0 0 0 
0 0 0 0 0 0 0 0 0 
0 0 0 0 0 0 0 0 0 
0 0 0 0 0 0 0 0 0 
0 0 0 0 0 0 0 0 0 
0 0 0 0 0 0 0 0 0 
0 0 0 0 0 0 0 0 0 
0 0 0 0 0 0 0 0 0 
0 0 0 0 0 0 0 0 0 
0 0 0 0 0 0 0 0 0 
0 0 0 0 0 0 0 0 0 
0 0 0 0 0 0 0 0 0 
0 0 0 0 0 0 0 0 0 
0 0 0 0 0 0 0 0 0 
0 0 0 0 0 0 0 0 0 
0 0 0 0 0 0 0 0 0 
0 0 0 0 0 0 0 0 0 
0 0 0 0 0 0 0 0 0 
0 0 0 0 0 0 0 0 0 
0 0 0 0 0 0 0 0 0 
0 0 0 0 0 0 0 0 0 
0 0 0 0 0 0 0 0 0 
0 0 0 0 0 0 0 0 0 
0 0 0 0 0 0 0 0 0 
0 0 0 0 0 0 0 0 0 
0 0 0 0 0 0 0 0 0 
0 0 0 0 0 0 0 0 0 
0 0 0 0 0 0 0 0 0 
0 0 0 0 0 0 0 0 0 
0 0 0 0 0 0 0 0 0 
0 0 0 0 0 0 0 0 0 
0 0 0 0 0 0 0 0 0 
0 0 0 0 0 0 0 0 0 
0 0 0 0 0 0 0 0 0 
0 0 0 0 0 0 0 0 0 
0 0 0 0 0 0 0 0 0 
0 0 0 0 0 0 0 0 0 
0 0 0 0 0 0 0 0 0 
0 0 0 0 0 0 0 0 0 
0 0 0 0 0 0 0 0 0 
0 0 0 0 0 0 0 0 0 
0 0 0 0 0 0 0 0 0 
0 0 0 0 0 0 0 0 0 
0 0 0 0 0 0 0 0 0 
0 0 0 0 0 0 0 0 0 
0 0 0 0 0 0 0 0 0 
0 0 0 0 0 0 0 0 0 
0 0 0 0 0 0 0 0 0 
0 0 0 0 0 0 0 0 0 
0 0 0 0 0 0 0 0 0 
0 0 0 0 0 0 0 0 0 
0 0 0 0 0 0 0 0 0 
0 0 0 0 0 0 0 0 0 
0 0 0 0 0 0 0 0 0 
0 0 0 0 0 0 0 0 0 
0 0 0 0 0 0 0 0 0 
0 0 0 0 0 0 0 0 0 
0 0 0 0 0 0 0 0 0 
0 0 0 0 0 0 0 0 0 
0 0 0 0 0 0 0 0 0 
0 0 0 0 0 0 0 0 0 
0 0 0 0 0 0 0 0 0 
0 0 0 0 0 0 0 0 0 
0 0 0 0 0 0 0 0 0 
0 0 0 0 0 0 0 0 0 
0 0 0 0 0 0 0 0 0 
0 0 0 0 0 0 0 0 0 
0 0 0 0 0 0 0 0 0 
0 0 0 0 0 0 0 0 0 
0 0 0 0 0 0 0 0 0 
0 0 0 0 0 0 0 0 0 
0 0 0 0 0 0 0 0 0 
0 0 0 0 0 0 0 0 0 
0 0 0 0 0 0 0 0 0 
0 0 0 0 0 0 0 0 0 
0 0 0 0 0 0 0 0 0 
0 0 0 0 0 0 0 0 0 
0 0 0 0 0 0 0 0 0 
0 0 0 0 0 0 0 0 0 
0 0 0 0 0 0 0 0 0 
0 0 0 0 0 0 0 0 0 
0 0 0 0 0 0 0 0 0 
0 0 0 0 0 0 0 0 0 
0 0 0 0 0 0 0 0 0 
0 0 0 0 0 0 0 0 0 
0 0 0 0 0 0 0 0 0 
0 0 0 0 0 0 0 0 0 
0 0 0 0 0 0 0 0 0 
0 0 0 0 0 0 0 0 0 
0 0 0 0 0 0 0 0 0 
0 0 0 0 0 0 0 0 0 
0 0 0 0 0 0 0 0 0 
0 0 0 0 0 0 0 0 0 
0 0 0 0 0 0 0 0 0 
0 0 0 0 0 0 0 0 0 
0 0 0 0 0 0 0 0 0 
0 0 0 0 0 0 0 0 0 
0 0 0 0 0 0 0 0 0 
0 0 0 0 0 0 0 0 0 
0 0 0 0 0 0 0 0 0 
0 0 0 0 0 0 0 0 0 
0 0 0 0 0 0 0 0 0 
0 0 0 0 0 0 0 0 0 
0 0 0 0 0 0 0 0 0 
0 0 0 0 0 0 0 0 0 
0 0 0 0 0 0 0 0 0 
0 0 0 0 0 0 0 0 0 
0 0 0 0 0 0 0 0 0 
0 0 0 0 0 0 0 0 0 
0 0 0 0 0 0 0 0 0 
0 0 0 0 0 0 0 0 0 
0 0 0 0 0 0 0 0 0 
0 0 0 0 0 0 0 0 0 
0 0 0 0 0 0 0 0 0 
0 0 0 0 0 0 0 0 0 
0 0 0 0 0 0 0 0 0 
0 0 0 0 0 0 0 0 0 
0 0 0 0 0 0 0 0 0 
0 0 0 0 0 0 0 0 0 
0 0 0 0 0 0 0 0 0 
0 0 0 0 0 0 0 0 0 
0 0 0 0 0 0 0 0 0 
0 0 0 0 0 0 0 0 0 
0 0 0 0 0 0 0 0 0 
0 0 0 0 0 0 0 0 0 
0 0 0 0 0 0 0 0 0 
0 0 0 0 0 0 0 0 0 
0 0 0 0 0 0 0 0 0 
0 0 0 0 0 0 0 0 0 
0 0 0 0 0 0 0 0 0 
0 0 0 0 0 0 0 0 0 
0 0 0 0 0 0 0 0 0 
0 0 0 0 0 0 0 0 0 
0 0 0 0 0 0 0 0 0 
0 0 0 0 0 0 0 0 0 
0 0 0 0 0 0 0 0 0 
0 0 0 0 0 0 0 0 0 
0 0 0 0 0 0 0 0 0 
0 0 0 0 0 0 0 0 0 
0 0 0 0 0 0 0 0 0 
0 0 0 0 0 0 0 0 0 
0 0 0 0 0 0 0 0 0 
0 0 0 0 0 0 0 0 0 
0 0 0 0 0 0 0 0 0 
0 0 0 0 0 0 0 0 0 
0 0 0 0 0 0 0 0 0 
0 0 0 0 0 0 0 0 0 
0 0 0 0 0 0 0 0 0 
0 0 0 0 0 0 0 0 0 
0 0 0 0 0 0 0 0 0 
0 0 0 0 0 0 0 0 0 
0 0 0 0 0 0 0 0 0 
0 0 0 0 0 0 0 0 0 
0 0 0 0 0 0 0 0 0 
0 0 0 0 0 0 0 0 0 
0 0 0 0 0 0 0 0 0 
0 0 0 0 0 0 0 0 0 
0 0 0 0 0 0 0 0 0 
0 0 0 0 0 0 0 0 0 
0 0 0 0 0 0 0 0 0 
0 0 0 0 0 0 0 0 0 
0 0 0 0 0 0 0 0 0 
0 0 0 0 0 0 0 0 0 
0 0 0 0 0 0 0 0 0 
0 0 0 0 0 0 0 0 0 
0 0 0 0 0 0 0 0 0 
0 0 0 0 0 0 0 0 0 
0 0 0 0 0 0 0 0 0 
0 0 0 0 0 0 0 0 0 
0 0 0 0 0 0 0 0 0 
0 0 0 0 0 0 0 0 0 
0 0 0 0 0 0 0 0 0 
0 0 0 0 0 0 0 0 0 
0 0 0 0 0 0 0 0 0 
0 0 0 0 0 0 0 0 0 
0 0 0 0 0 0 0 0 0 
0 0 0 0 0 0 0 0 0 
0 0 0 0 0 0 0 0 0 
0 0 0 0 0 0 0 0 0 
0 0 0 0 0 0 0 0 0 
0 0 0 0 0 0 0 0 0 
0 0 0 0 0 0 0 0 0 
0 0 0 0 0 0 0 0 0 
0 0 0 0 0 0 0 0 0 
0 0 0 0 0 0 0 0 0 
0 0 0 0 0 0 0 0 0 
0 0 0 0 0 0 0 0 0 
0 0 0 0 0 0 0 0 0 
0 0 0 0 0 0 0 0 0 
0 0 0 0 0 0 0 0 0 
0 0 0 0 0 0 0 0 0 
0 0 0 0 0 0 0 0 0 
0 0 0 0 0 0 0 0 0 
0 0 0 0 0 0 0 0 0 
0 0 0 0 0 0 0 0 0 
0 0 0 0 0 0 0 0 0 
0 0 0 0 0 0 0 0 0 
0 0 0 0 0 0 0 0 0 
0 0 0 0 0 0 0 0 0 
0 0 0 0 0 0 0 0 0 
0 0 0 0 0 0 0 0 0 
0 0 0 0 0 0 0 0 0 
0 0 0 0 0 0 0 0 0 
0 0 0 0 0 0 0 0 0 
0 0 0 0 0 0 0 0 0 
0 0 0 0 0 0 0 0 0 
0 0 0 0 0 0 0 0 0 
0 0 0 0 0 0 0 0 0 
0 0 0 0 0 0 0 0 0 
0 0 0 0 0 0 0 0 0 
0 0 0 0 0 0 0 0 0 
0 0 0 0 0 0 0 0 0 
0 0 0 0 0 0 0 0 0 
0 0 0 0 0 0 0 0 0 
0 0 0 0 0 0 0 0 0 
0 0 0 0 0 0 0 0 0 
0 0 0 0 0 0 0 0 0 
0 0 0 0 0 0 0 0 0 
0 0 0 0 0 0 0 0 0 
0 0 0 0 0 0 0 0 0 
0 0 0 0 0 0 0 0 0 
0 0 0 0 0 0 0 0 0 
0 0 0 0 0 0 0 0 0 
0 0 0 0 0 0 0 0 0 
0 0 0 0 0 0 0 0 0 
0 0 0 0 0 0 0 0 0 
0 0 0 0 0 0 0 0 0 
0 0 0 0 0 0 0 0 0 
0 0 0 0 0 0 0 0 0 
0 0 0 0 0 0 0 0 0 
0 0 0 0 0 0 0 0 0 
0 0 0 0 0 0 0 0 0 
0 0 0 0 0 0 0 0 0 
0 0 0 0 0 0 0 0 0 
0 0 0 0 0 0 0 0 0 
0 0 0 0 0 0 0 0 0 
0 0 0 0 0 0 0 0 0 
0 0 0 0 0 0 0 0 0 
0 0 0 0 0 0 0 0 0 
0 0 0 0 0 0 0 0 0 
0 0 0 0 0 0 0 0 0 
0 0 0 0 0 0 0 0 0 
0 0 0 0 0 0 0 0 0 
0 0 0 0 0 0 0 0 0 
0 0 0 0 0 0 0 0 0 
0 0 0 0 0 0 0 0 0 
0 0 0 0 0 0 0 0 0 
0 0 0 0 0 0 0 0 0 
0 0 0 0 0 0 0 0 0 
0 0 0 0 0 0 0 0 0 
0 0 0 0 0 0 0 0 0 
0 0 0 0 0 0 0 0 0 
0 0 0 0 0 0 0 0 0 
0 0 0 0 0 0 0 0 0 
0 0 0 0 0 0 0 0 0 
0 0 0 0 0 0 0 0 0 
0 0 0 0 0 0 0 0 0 
0 0 0 0 0 0 0 0 0 
0 0 0 0 0 0 0 0 0 
0 0 0 0 0 0 0 0 0 
0 0 0 0 0 0 0 0 0 
0 0 0 0 0 0 0 0 0 
0 0 0 0 0 0 0 0 0 
0 0 0 0 0 0 0 0 0 
0 0 0 0 0 0 0 0 0 
0 0 0 0 0 0 0 0 0 
0 0 0 0 0 0 0 0 0 
0 0 0 0 0 0 0 0 0 
0 0 0 0 0 0 0 0 0 
0 0 0 0 0 0 0 0 0 
0 0 0 0 0 0 0 0 0 
0 0 0 0 0 0 0 0 0 
0 0 0 0 0 0 0 0 0 
0 0 0 0 0 0 0 0 0 
0 0 0 0 0 0 0 0 0 
0 0 0 0 0 0 0 0 0 
0 0 0 0 0 0 0 0 0 
0 0 0 0 0 0 0 0 0 
0 0 0 0 0 0 0 0 0 
0 0 0 0 0 0 0 0 0 
0 0 0 0 0 0 0 0 0 
0 0 0 0 0 0 0 0 0 
0 0 0 0 0 0 0 0 0 
0 0 0 0 0 0 0 0 0 
0 0 0 0 0 0 0 0 0 
0 0 0 0 0 0 0 0 0 
0 0 0 0 0 0 0 0 0 
0 0 0 0 0 0 0 0 0 
0 0 0 0 0 0 0 0 0 
0 0 0 0 0 0 0 0 0 
0 0 0 0 0 0 0 0 0 
0 0 0 0 0 0 0 0 0 
0 0 0 0 0 0 0 0 0 
0 0 0 0 0 0 0 0 0 
0 0 0 0 0 0 0 0 0 
0 0 0 0 0 0 0 0 0 
0 0 0 0 0 0 0 0 0 
0 0 0 0 0 0 0 0 0 
0 0 0 0 0 0 0 0 0 
0 0 0 0 0 0 0 0 0 
0 0 0 0 0 0 0 0 0 
0 0 0 0 0 0 0 0 0 
0 0 0 0 0 0 0 0 0 
0 0 0 0 0 0 0 0 0 
0 0 0 0 0 0 0 0 0 
0 0 0 0 0 0 0 0 0 
0 0 0 0 0 0 0 0 0 
0 0 0 0 0 0 0 0 0 
0 0 0 0 0 0 0 0 0 
0 0 0 0 0 0 0 0 0 
0 0 0 0 0 0 0 0 0 
0 0 0 0 0 0 0 0 0 
0 0 0 0 0 0 0 0 0 
0 0 0 0 0 0 0 0 0 
0 0 0 0 0 0 0 0 0 
0 0 0 0 0 0 0 0 0 
0 0 0 0 0 0 0 0 0 
0 0 0 0 0 0 0 0 0 
0 0 0 0 0 0 0 0 0 
0 0 0 0 0 0 0 0 0 
0 0 0 0 0 0 0 0 0 
0 0 0 0 0 0 0 0 0 
0 0 0 0 0 0 0 0 0 
0 0 0 0 0 0 0 0 0 
0 0 0 0 0 0 0 0 0 
0 0 0 0 0 0 0 0 0 
0 0 0 0 0 0 0 0 0 
0 0 0 0 0 0 0 0 0 
0 0 0 0 0 0 0 0 0 
0 0 0 0 0 0 0 0 0 
0 0 0 0 0 0 0 0 0 
0 0 0 0 0 0 0 0 0 
0 0 0 0 0 0 0 0 0 
0 0 0 0 0 0 
v 3 1151 double
0.059008 -0.199292 -3.12208 -0.073182 -0.185656 -3.04954 -0.0104286 -0.398357 -2.8232 
0.17727 -0.259586 -2.7961 -0.00751726 -0.291374 -2.78633 0.00338133 -0.202314 -2.79232 
0.0727492 -0.191094 -2.71262 0.000932047 -0.185507 -2.66886 0.00525555 -0.179237 -2.61269 
-0.0295349 -0.217813 -2.5992 -0.020506 -0.195886 -2.48741 0.0664469 -0.176129 -2.40916 
0.190098 -0.180191 -2.38955 -0.0499472 -0.156625 -2.37442 -0.0166739 -0.315829 -2.33653 
-0.0885939 -0.164217 -2.25598 0.0191592 -0.165968 -2.24863 0.0315197 -0.158784 -2.24307 
0.076366 -0.155137 -2.23586 -0.0972053 -0.167425 -2.1159 -0.0765058 -0.242214 -1.95142 
-0.0714214 -0.178438 -1.93724 -0.116153 -0.146507 -1.89902 -0.00766658 -0.226757 -1.71718 
-0.0586615 -0.124371 -1.68259 0.038162 -0.177553 -1.66988 0.0413018 -0.144672 -1.62729 
0.0287728 -0.141615 -1.48538 -0.0125736 -0.123743 -1.42238 0.126354 -0.162996 -1.26758 
0.0751019 -0.166385 -1.24234 -0.00169053 -0.13947 -1.23873 0.0429247 -0.142061 -1.18427 
0.115409 -0.129555 -1.1691 -0.0362661 -0.183518 -1.1452 -0.145934 -0.170018 -1.11622 
-0.0252108 -0.126062 -1.071 0.0120231 -0.078786 -1.0984 -0.0193264 -0.136528 -0.999941 
0.0986936 -0.136895 -0.954879 -0.110333 -0.180511 -0.903895 -0.0475445 -0.143046 -0.78191 
0.0252151 -0.124966 -0.735656 0.0370479 -0.20658 -0.659772 -0.0369728 -0.114977 -0.548466 
-0.0155696 -0.504676 -0.615293 -0.0136227 -0.128171 -0.450486 0.0746254 -0.131823 -0.424294 
-0.00191284 -0.096842 -0.397355 0.0207301 -0.129436 -0.290987 -0.0324996 -0.10896 -0.222584 
0.030955 -0.109441 -6.22323e-14 -0.0546401 -0.0989205 9.77824e-16 0.0109714 -0.124992 -4.64296e-14 
0.076742 -0.0639368 -3.06269e-14 0.00174516 -0.123609 -6.22331e-14 0.00656257 -0.125271 1.67805e-14 
0.0489767 -0.134619 -8.59372e-14 -0.0854144 -0.108063 6.41895e-14 0.0143897 -0.149513 -3.06277e-14 
0.0119532 -0.15027 2.46827e-14 0.0193322 -0.0994086 7.20901e-14 -0.00795638 -0.00550001 7.99923e-14 
-0.0182229 -0.0836891 -3.85298e-14 0.00210227 -0.0996632 -6.22331e-14 -0.00783765 -0.135264 9.77825e-16 
0.0819189 -0.0980738 -7.80359e-14 -0.0190219 -0.15805 -0.0382481 0.00579569 -0.0670813 -3.42947e-07 
0.0154208 -0.116511 -3.06269e-14 -0.079998 -0.0892408 7.22703e-12 -0.0475828 -0.0994101 -1.48241e-14 
-0.0668285 -0.0977167 7.99923e-14 -0.0956537 -0.102347 -7.80359e-14 -0.0515001 -0.0874587 5.62866e-14 
-0.00110659 -0.119903 4.04847e-14 0.0318518 -0.116091 -5.43325e-14 -0.0840832 -0.0749088 1.67805e-14 
-0.105313 -0.0623677 -1.14286e-10 -0.0495376 -0.1197 -5.43325e-14 -0.0360523 -0.145602 -3.85298e-14 
0.0305597 -0.126481 9.78598e-16 0.110911 -0.113573 7.99923e-14 0.000489823 -0.0422374 -2.27271e-14 
0.0341431 -0.122185 4.04847e-14 0.0041256 -0.0211512 -4.36913e-08 0.0139567 -0.0998245 -4.64296e-14 
-0.00735182 -0.0822175 -8.59372e-14 0.0528025 -0.0461127 -7.01337e-14 0.0599066 -0.113818 -2.27271e-14 
0.00599738 -0.0431781 3.25825e-14 -0.0913023 -0.0697295 8.87996e-15 -0.0879254 -0.0759984 -6.92355e-15 
-0.0627363 -0.0758546 -3.06277e-14 -0.0233147 -0.119387 -7.80351e-14 -0.00422115 -0.0905514 2.46819e-14 
0.00757544 -0.0979032 -6.20789e-14 -0.00551254 -0.0783305 -2.27271e-14 -0.00185845 -0.15049 0.013275 
0.0619983 -0.124496 -2.27271e-14 -0.0635019 -0.0689226 -2.27271e-14 -0.0577987 -0.0953158 7.20909e-14 
0.0124467 -0.0833623 2.06982e-15 -0.0170164 -0.0978381 7.20909e-14 0.0996437 -0.19587 -1.48249e-14 
-0.0197504 -0.0594137 0.00422541 0.00356444 -0.0406347 0.0195505 -0.0464171 -0.0530467 -7.01337e-14 
-0.0109357 -0.0812788 9.77811e-16 -0.0204489 -0.0858419 -3.85298e-14 0.0469337 -0.124083 1.93289e-12 
0.143843 -0.149877 8.87995e-15 0.00246538 0.0134433 8.10662e-07 -0.102855 -0.0665314 -6.92277e-15 
-0.0357911 -0.0256222 2.46819e-14 0.0100065 -0.0897852 6.32534e-11 0.0672502 -0.0978643 -3.76166e-11 
0.263075 -0.139794 1.67798e-14 -0.0111826 -0.0592439 -2.26593e-14 -0.0403854 -0.0577625 -6.22323e-14 
0.0212673 -0.0955736 -1.25153e-06 0.0380624 -0.0857055 -7.01345e-14 0.0349812 -0.201011 7.99915e-14 
-0.0232082 -0.044369 0.00298114 0.0651648 -0.0992048 -3.85298e-14 0.0376581 -0.0393934 -8.82017e-06 
-0.109312 -0.0716157 9.77813e-16 -0.0856852 -0.0394081 -6.92355e-15 -0.0185728 -0.0588408 -4.64296e-14 
-0.00364404 -0.0409855 3.22261e-05 -0.00704966 -0.092179 -1.60456e-05 0.0427106 -0.110324 7.99923e-14 
-0.0821792 0.0149105 -1.06084e-14 0.0662235 -0.117322 4.8386e-14 0.0358509 -0.0522019 7.20901e-14 
-0.0963979 -0.051721 -6.92356e-15 -0.125159 -0.0326573 -3.85298e-14 -0.0147983 -0.0540545 -1.26787e-05 
-0.0108316 -0.0413282 0.000805498 -0.00196108 -0.0311375 8.62709e-12 -0.0468126 -0.0567033 -5.74878e-05 
-0.0115228 -0.0429979 8.07958e-05 0.0261471 -0.08508 1.10448e-05 0.0269051 -0.0781066 -7.01337e-14 
0.101083 -0.152661 -1.48249e-14 -0.116454 -0.0538019 5.62874e-14 -0.0345253 -0.0455939 3.78151e-08 
-0.030909 -0.0554044 2.64181e-09 -0.00693744 -0.0426126 0.000551658 -0.00991293 -0.0457863 -0.00699975 
-0.00325075 -0.0369607 6.38096e-05 0.0554622 -0.0787486 3.53448e-07 0.0165362 -0.0398481 -3.97958e-06 
0.128589 -0.0790263 7.99923e-14 0.0968225 -0.0631003 -5.43325e-14 0.148523 -0.0755236 7.20909e-14 
-0.0139176 -0.0355988 -5.43318e-14 0.0284356 -0.0222539 -4.64288e-14 -0.0219451 -0.0587291 -1.00877e-09 
-0.0260264 -0.0388767 2.51513e-05 -0.00672147 -0.0599201 9.82013e-10 0.0330185 -0.0371663 -0.0256261 