# vtk DataFile Version 4.0
Generated by LIGGGHTS
ASCII
DATASET POLYDATA
POINTS 1041 float
0.0175098 -0.00298283 0.0511766 0.0257037 -0.197474 -0.500422 -0.0448133 -0.181267 -0.474697 
0.0934824 -0.220623 -0.471018 0.0241025 -0.181872 -0.456773 0.0703214 -0.172487 -0.417602 
0.0503661 -0.146302 -0.25209 -0.068886 -0.141769 -0.235512 -0.0167628 -0.18032 -0.188224 
0.103682 -0.15164 -0.182795 0.00222231 -0.157672 -0.179855 -0.024882 -0.140201 -0.181045 
0.0563846 -0.136402 -0.166535 -0.0956754 -0.134512 -0.158296 0.0126241 -0.132321 -0.148006 
-0.0141492 -0.138984 -0.144584 -0.033723 -0.132839 -0.125215 0.0540049 -0.128107 -0.113413 
0.104002 -0.128394 -0.110305 -0.03241 -0.124481 -0.106933 0.093032 -0.148022 -0.102092 
-0.0923487 -0.123773 -0.0891094 -0.0684719 -0.123646 -0.0901658 0.018896 -0.12269 -0.0873166 
0.0624122 -0.122024 -0.08729 -0.0742017 -0.121746 -0.0699998 -0.0141727 -0.127331 -0.051046 
-0.0237895 -0.119891 -0.0494557 -0.0949039 -0.115771 -0.0452694 0.00970567 -0.120176 -0.0273921 
-0.0409796 -0.110655 -0.0243734 0.039537 -0.114954 -0.0232944 0.0352796 -0.111567 -0.0198001 
0.0184913 -0.109381 -0.0085069 -0.0237283 -0.10732 -0.00557184 0.0355586 -0.104944 0.00558543 
0.0624198 -0.106796 0.00439544 0.0842117 -0.107048 0.0023392 0.0956038 -0.10563 0.0035435 
-0.025228 -0.105639 0.00686439 -0.0923122 -0.102482 0.00806131 -0.0895772 -0.104726 0.00771222 
0.0132825 -0.10294 0.00886427 0.0880488 -0.104315 0.00610041 -0.0833387 -0.101107 0.0113138 
-0.0230874 -0.0991109 0.0114983 0.0354124 -0.098643 0.0114983 0.0694102 -0.0943799 0.0114983 
0.0945439 -0.0958756 0.0114983 -0.0280957 -0.0931288 0.0114983 -0.0929736 -0.088723 0.0114983 
-0.0752153 -0.0900027 0.0114983 -0.0369844 -0.0893477 0.0114983 3.76358e-07 -0.0884144 0.0114983 
-0.0848439 -0.0857973 0.0114983 0.00450116 -0.085939 0.0114983 0.00834434 -0.0843631 0.0114983 
0.0259725 -0.0853846 0.0114983 0.0382841 -0.0839644 0.0114983 -0.0624036 -0.0810647 0.0114983 
-0.0246544 -0.0800285 0.0114983 -0.0183853 -0.0812812 0.0114983 0.0123757 -0.0787455 0.0114983 
0.0156403 -0.0791764 0.0114983 0.080993 -0.0789233 0.0114983 -0.0953063 -0.0739395 0.0114983 
-0.0666354 -0.0745381 0.0114983 -0.0567119 -0.0735959 0.0114983 -0.0495655 -0.0734835 0.0114983 
-0.0431061 -0.0751154 0.0114983 -0.0272784 -0.0760873 0.0114983 -0.0234152 -0.0727905 0.0114983 
0.0153418 -0.0752528 0.0114983 -0.0927671 -0.0722293 0.0114983 -0.0689521 -0.0697518 0.0114983 
-0.0618179 -0.0713126 0.0114983 -0.041185 -0.0710017 0.0114983 0.0122863 -0.072547 0.0114983 
-0.0951533 -0.0681763 0.0114969 -0.0377321 -0.069304 0.0114983 0.00682346 -0.0662198 0.0114983 
0.0343531 -0.0669772 0.0114983 0.0620777 -0.0682292 0.0114983 -0.0938783 -0.0647086 0.0114983 
-0.0959112 -0.0621614 0.0114878 -0.0333733 -0.0642418 0.0114983 0.0137035 -0.0628978 0.0114983 
0.0185808 -0.0638036 0.0114983 0.0292563 -0.063245 0.0114983 -0.095794 -0.0588523 0.011493 
-0.0611612 -0.0595308 0.0114983 -0.0444471 -0.0604688 0.0114983 -0.0380975 -0.06021 0.0114983 
-0.00441526 -0.0596762 0.0114983 0.0191817 -0.0604397 0.0114983 0.0476337 -0.0613364 0.0114983 
-0.0441145 -0.0573851 0.0114983 -0.0393375 -0.0566806 0.0114983 -0.0225077 -0.057002 0.0114983 
-0.00549023 -0.055818 0.0114983 0.0023194 -0.0571779 0.0114983 0.0075103 -0.0585387 0.0114983 
0.0201936 -0.0574763 0.0115005 0.0352512 -0.0564575 0.0114983 -0.0897251 -0.0530207 0.0114997 
-0.0185683 -0.0548467 0.0114983 0.0152827 -0.0536855 0.0114983 0.0205827 -0.0544925 0.0115435 
0.0956618 -0.0536489 0.0114983 -0.0754165 -0.0507088 0.0114983 -0.0405321 -0.0510538 0.0114983 
0.0140019 -0.0499947 0.0114983 0.0398611 -0.0509543 0.0114983 0.0431378 -0.0504736 0.0114983 
-0.0393204 -0.0457177 0.0114983 -0.00805373 -0.0469473 0.0114983 -0.000402748 -0.0445639 0.0114983 
0.00327012 -0.044389 0.0114965 0.01324 -0.0466639 0.0114983 0.0364896 -0.0474975 0.0114983 
0.0408704 -0.0463654 0.0114981 0.0467616 -0.0485815 0.0114983 0.0478073 -0.0455017 0.0117494 
-0.0469779 -0.0422702 0.0114983 -0.043805 -0.0431805 0.0114983 -0.0281249 -0.0424124 0.011509 
-0.010245 -0.0438877 0.0114983 0.0014822 -0.0419892 0.0114957 -0.00131126 -0.0409158 0.0114983 
0.0160456 -0.0444264 0.0114983 0.0136232 -0.0425659 0.0114983 0.0282864 -0.0449825 0.0114984 
0.0834338 -0.0433159 0.0114983 -0.0463344 -0.0387108 0.0114983 -0.0120954 -0.0402931 0.0114983 
-0.0088096 -0.0387839 0.0114983 0.00262432 -0.0392193 0.011499 0.00991201 -0.0402175 0.0114983 
0.0137105 -0.0376599 0.0114983 0.0192419 -0.0404759 0.0114983 0.0169897 -0.0382646 0.0114983 
0.0243141 -0.0390607 0.0114983 0.0423049 -0.0415552 0.0114983 0.0453275 -0.0413732 0.0114983 
0.0587707 -0.0378802 0.0114983 0.0835794 -0.0392049 0.0114983 0.0949303 -0.038653 0.0114983 
-0.087973 -0.0356721 0.0114983 -0.0784231 -0.0369017 0.0114983 -0.0360962 -0.0352056 0.0114983 
-0.00677297 -0.035148 0.0114983 -0.000571187 -0.0378964 0.0114983 0.00963963 -0.0350945 0.0114983 
0.0226858 -0.0365129 0.0115202 0.050527 -0.0352559 0.0114984 0.0579212 -0.0341106 0.0114983 
0.0630608 -0.0351583 0.0114983 0.0928336 -0.036497 0.0114986 -0.0673655 -0.0304982 0.0114983 
-0.0380078 -0.0324498 0.0114983 -0.0339374 -0.0329159 0.011497 -0.00729465 -0.0321434 0.0115806 
0.000894785 -0.0325033 0.011525 0.00733754 -0.0330384 0.0115046 0.0135892 -0.0325981 0.0114983 
0.0382689 -0.0320818 0.0114983 0.0423869 -0.0323323 0.0114983 0.0548266 -0.0320645 0.0114983 
-0.0936602 -0.0274192 0.0114983 -0.0854916 -0.0272562 0.0114983 -0.0334885 -0.0298741 0.0116031 
-0.0298142 -0.0285291 0.0114983 -0.00429994 -0.030505 0.0114984 0.00231242 -0.0270092 0.0114945 
0.00660254 -0.0301154 0.0115151 0.00943619 -0.0275469 0.0115146 0.0114196 -0.0300192 0.0114983 
0.0184192 -0.0302643 0.0114983 0.0238363 -0.0297741 0.0114983 0.0392341 -0.0283615 0.0114983 
0.0503731 -0.028588 0.0114983 0.0888525 -0.0294685 0.0114983 -0.0760868 -0.0248633 0.0114983 
-0.0604965 -0.0246956 0.0114983 -0.0323218 -0.0260684 0.0114983 -0.000419002 -0.0253504 0.0114984 
0.0045596 -0.0235766 0.0115079 0.00974928 -0.0238507 0.0114984 0.0267016 -0.0264547 0.0114983 
0.0260046 -0.023423 0.0114983 0.0302269 -0.024164 0.0114947 0.033363 -0.0242273 0.0114983 
0.0366384 -0.0254561 0.0114983 0.0449183 -0.0243822 0.0114983 0.0484426 -0.025275 0.0114983 
0.0554304 -0.0235474 0.0114983 0.0958462 -0.0228653 0.0114983 -0.0384867 -0.0223187 0.0115044 
-0.0410798 -0.0208279 0.0117893 -0.0355556 -0.0213522 0.0121751 -0.00800582 -0.0232897 0.0117669 
0.00153708 -0.0230602 0.0114983 0.0019402 -0.0200944 0.0117098 0.0447977 -0.0205536 0.0114983 
-0.0691424 -0.0177598 0.0114983 -0.0546722 -0.0180727 0.0114983 -0.0358356 -0.0171486 0.0114983 
-0.0061791 -0.0180192 0.0115356 0.0045451 -0.0178674 0.0114983 0.0307152 -0.0174719 0.0114983 
0.0391329 -0.018645 0.0114984 -0.0953866 -0.0137415 0.0114983 -0.0905509 -0.0140946 0.0114984 
-0.0731541 -0.0140828 0.0114983 -0.0609471 -0.0128709 0.0114983 -0.0499885 -0.0156544 0.0114983 
-0.0368178 -0.0142347 0.0114983 -0.0268002 -0.0156888 0.0114842 -0.0200493 -0.0142452 0.0129329 
-0.017265 -0.0137172 0.0114982 -0.0140134 -0.0136418 0.0114969 -0.00769407 -0.0144653 0.0114983 
-0.00344487 -0.0151689 0.0114983 0.00547542 -0.0143766 0.0115057 0.00873779 -0.0157175 0.011565 
0.0117799 -0.0133804 0.0114983 0.0209422 -0.0153227 0.0114983 0.0509554 -0.013867 0.011499 
0.0704452 -0.0146327 0.0114983 -0.0958246 -0.00990701 0.0114983 -0.0914105 -0.0103383 0.0114983 
-0.0880111 -0.0124909 0.0114983 -0.0748008 -0.0101471 0.0114983 -0.0629362 -0.0090012 0.0114983 
-0.0556514 -0.011264 0.0114983 -0.0393579 -0.0115274 0.0114983 -0.0361966 -0.0112764 0.0114983 
-0.0295806 -0.0107304 0.011498 -0.0265593 -0.0108881 0.0117081 -0.0231142 -0.0106199 0.0114983 
-0.0192577 -0.0112988 0.0116445 -0.0101871 -0.0121432 0.0114983 -0.00604468 -0.0107669 0.0118414 
0.00266758 -0.0128475 0.0117985 0.00455526 -0.00939527 0.0114987 0.0153581 -0.00949954 0.0114842 
0.0193178 -0.0112046 0.0115046 0.0428286 -0.0112121 0.0117578 0.0640836 -0.00881825 0.0114983 
0.0655488 -0.0117765 0.0114983 -0.0711456 -0.00580499 0.0114983 -0.067036 -0.00815846 0.0114983 
-0.0564828 -0.00624586 0.0114983 -0.0388938 -0.00654261 0.0114983 -0.0342625 -0.0085066 0.0114983 
-0.0214525 -0.00678887 0.0132348 -0.0120431 -0.00638288 0.0114984 -0.0100655 -0.00914478 0.0115003 
-0.00568265 -0.00764841 0.0115092 0.00878115 -0.00681184 0.0114983 0.0134247 -0.00609501 0.0114984 
0.0218972 -0.008176 0.0130141 0.0249638 -0.00678555 0.0114983 0.0329099 -0.00600896 0.0114983 
0.0381917 -0.00629559 0.0114983 0.0733992 -0.00859428 0.0114983 0.0787712 -0.00660769 0.0114983 
0.0945506 -0.00870216 0.0114983 0.0959957 -0.00581094 0.0114983 -0.0784681 -0.0027243 0.0114983 
-0.0754804 -0.00456629 0.0114983 -0.0621319 -0.00490706 0.0114983 -0.0319535 -0.00244053 0.0116505 
-0.0259462 -0.00215107 0.0115377 -0.0238202 -0.00580827 0.0116539 -0.00701931 -0.00496491 0.0114946 
0.0221795 -0.00229154 0.0114956 0.0261289 -0.00235202 0.0115526 0.0291215 -0.00518908 0.0116097 
0.0395653 -0.00336058 0.0114983 0.0757324 -0.0030977 0.0114983 0.0832543 -0.00276296 0.0114983 
0.092957 -0.00506301 0.0114983 -0.0957127 -0.000822485 0.0114983 -0.0488363 -0.000107743 0.0114983 
-0.0336229 6.23806e-05 0.0114985 -0.0284936 0.000643744 0.012813 -0.0250736 0.000910745 0.011518 
-0.0210407 -0.00114154 0.0114968 -0.0139561 0.000291514 0.011495 0.00993986 0.000103301 0.011565 
0.0242458 0.00175764 0.011498 0.0429488 -0.00188507 0.0114983 0.0509412 -0.00175486 0.0114983 
0.059579 0.0010639 0.0114983 0.0622843 -0.0012443 0.0114983 0.0793173 -0.00171918 0.0114983 
0.088407 -0.000551822 0.0114983 -0.0768942 0.00396928 0.0114983 -0.0625702 0.00488303 0.0114983 
-0.0545036 0.00499424 0.0114983 -0.0478583 0.00361049 0.0114983 -0.0299179 0.00329155 0.0114983 
-0.0222844 0.00236149 0.0115446 -0.00861887 0.00336202 0.011498 -0.00548587 0.00298889 0.0114984 
0.0022894 0.00498286 0.0114898 0.00575149 0.00209804 0.0116529 0.0108324 0.00297697 0.0115305 
[...]
POINT_DATA 1041
FIELD FieldData 7
id 1 1041 int
1054 77 243 397 363 208 2 4 386 
189 416 324 265 9 112 154 262 10 
200 119 526 137 229 222 393 258 406 
267 252 514 73 76 173 68 83 328 
260 319 125 498 343 242 108 50 290 
307 110 97 19 8 353 283 18 192 
591 333 458 418 75 281 90 161 475 
101 11 71 409 378 32 268 85 523 
487 358 202 489 152 588 179 371 263 
251 63 45 47 308 438 433 559 107 
425 314 240 546 729 525 665 218 726 
540 638 214 615 109 205 352 566 743 
23 598 502 339 139 550 695 460 666 
694 496 626 835 524 807 476 600 935 
172 521 120 587 123 922 448 719 744 
782 127 612 611 821 469 784 785 603 
482 292 249 211 197 718 880 578 755 
599 753 610 630 164 693 320 760 830 
72 571 669 773 643 500 436 495 843 
879 734 857 809 677 679 443 340 854 
560 305 368 344 871 185 459 294 847 
816 849 798 767 681 667 366 507 721 
25 818 844 733 444 705 663 510 572 
794 380 656 808 114 153 84 561 527 
756 887 473 126 146 701 704 373 706 
456 820 614 346 217 64 174 227 36 
315 795 772 347 303 499 617 810 395 
715 533 288 923 861 562 585 412 651 
575 768 250 934 757 639 846 244 770 
689 279 834 574 355 538 295 201 239 
501 474 893 908 975 765 899 945 652 
163 302 411 257 74 226 883 919 976 
938 592 447 931 690 858 601 739 420 
384 334 289 228 162 948 745 564 121 
703 275 484 731 783 759 573 687 771 
253 96 488 624 842 625 472 817 730 
637 511 869 727 897 833 579 210 204 
404 873 845 746 616 532 860 512 886 
742 740 522 213 369 548 61 291 553 
432 264 407 332 552 627 293 707 781 
537 360 563 597 545 758 342 316 936 
266 741 642 714 341 872 485 766 392 
586 892 136 165 819 577 199 933 836 
855 345 779 640 896 468 359 497 805 
296 539 832 280 329 86 419 678 791 
576 190 558 431 702 717 590 604 754 
668 230 732 680 565 786 424 198 33 
231 584 605 909 676 589 655 133 277 
178 674 848 421 881 780 654 792 461 
309 434 370 508 549 547 520 628 276 
102 613 692 513 691 331 708 859 804 
720 534 629 471 811 486 140 445 649 
675 797 408 631 450 171 422 457 618 
379 151 435 483 519 641 650 769 330 
22 357 870 186 100 536 318 382 87 
462 688 255 385 437 354 38 383 238 
270 551 49 405 321 470 463 70 381 
269 317 327 304 21 99 215 747 372 
423 664 148 241 51 60 446 159 166 
122 177 212 237 399 449 396 187 124 
20 254 398 223 176 88 256 65 147 
509 134 39 111 149 191 57 58 203 
98 216 46 62 34 306 394 224 135 
95 301 410 138 13 7 113 26 188 
37 35 24 367 175 225 184 375 132 
168 529 144 541 261 325 167 300 285 
634 92 348 481 313 142 156 336 635 
594 477 464 42 568 583 528 413 494 
593 365 750 581 506 467 389 16 414 
15 155 518 452 623 439 595 710 40 
543 737 602 387 129 219 812 364 885 
827 248 67 157 14 787 337 402 284 
403 828 535 898 335 947 825 141 863 
235 504 29 323 442 660 698 814 723 
417 247 91 274 800 644 970 712 914 
278 415 193 884 170 957 801 671 633 
207 3 181 131 465 391 455 657 850 
709 793 376 683 997 246 927 736 902 
115 686 724 286 429 949 995 150 648 
851 619 824 361 79 94 531 653 912 
937 776 878 988 749 661 351 362 158 
557 983 670 582 911 913 326 390 946 
882 517 696 796 684 974 987 865 789 
839 722 441 311 622 831 918 427 838 
961 799 672 609 890 646 271 350 608 
764 905 788 700 659 221 480 245 183 
777 829 711 27 180 803 802 505 762 
895 889 81 647 920 763 606 492 544 
491 451 232 41 813 195 985 466 823 
685 971 806 298 117 66 567 868 963 
901 856 752 5 735 440 236 145 751 
143 822 662 959 999 958 952 775 388 
490 699 875 516 580 106 555 645 774 
259 570 738 907 925 454 17 338 55 
853 607 906 891 621 542 530 900 761 
894 673 209 493 116 620 716 815 874 
426 697 169 322 778 377 515 287 53 
220 428 866 658 430 826 54 400 103 
272 790 349 273 682 478 310 725 43 
556 196 128 554 93 44 569 299 69 
80 312 401 297 182 234 233 453 194 
374 56 479 503 31 130 28 1 118 
104 78 867 953 926 877 632 984 930 
1000 962 968 979 728 966 903 951 924 
1001 840 940 973 910 713 596 943 967 
996 955 992 986 977 960 917 876 941 
932 969 972 852 944 980 989 748 929 
1002 994 864 928 904 837 636 939 888 
862 841 998 1009 921 991 978 1015 990 
950 993 965 915 956 982 1010 964 1013 
942 1006 981 1012 954 1004 1005 1011 1014 
916 1007 1028 1008 1027 1025 1003 1023 1021 
1019 1024 1017 1016 1026 1020 1022 1018 1039 
1029 1034 1035 1040 1038 1036 1041 1030 1033 
1031 1037 1032 1042 1043 1044 1045 1046 1047 
1048 1049 1050 1051 1052 1053 
type 1 1041 int
1 1 1 1 1 1 1 1 1 
1 1 1 1 1 1 1 1 1 
1 1 1 1 1 1 1 1 1 
1 1 1 1 1 1 1 1 1 
1 1 1 1 1 1 1 1 1 
1 1 1 1 1 1 1 1 1 
1 1 1 1 1 1 1 1 1 
1 1 1 1 1 1 1 1 1 
1 1 1 1 1 1 1 1 1 
1 1 1 1 1 1 1 1 1 
1 1 1 1 1 1 1 1 1 
1 1 1 1 1 1 1 1 1 
1 1 1 1 1 1 1 1 1 
1 1 1 1 1 1 1 1 1 
1 1 1 1 1 1 1 1 1 
1 1 1 1 1 1 1 1 1 
1 1 1 1 1 1 1 1 1 
1 1 1 1 1 1 1 1 1 
1 1 1 1 1 1 1 1 1 
1 1 1 1 1 1 1 1 1 
1 1 1 1 1 1 1 1 1 
1 1 1 1 1 1 1 1 1 
1 1 1 1 1 1 1 1 1 
1 1 1 1 1 1 1 1 1 
1 1 1 1 1 1 1 1 1 
1 1 1 1 1 1 1 1 1 
1 1 1 1 1 1 1 1 1 
1 1 1 1 1 1 1 1 1 
1 1 1 1 1 1 1 1 1 
1 1 1 1 1 1 1 1 1 
1 1 1 1 1 1 1 1 1 
1 1 1 1 1 1 1 1 1 
1 1 1 1 1 1 1 1 1 
1 1 1 1 1 1 1 1 1 
1 1 1 1 1 1 1 1 1 
1 1 1 1 1 1 1 1 1 
1 1 1 1 1 1 1 1 1 
1 1 1 1 1 1 1 1 1 
1 1 1 1 1 1 1 1 1 
1 1 1 1 1 1 1 1 1 
1 1 1 1 1 1 1 1 1 
1 1 1 1 1 1 1 1 1 
1 1 1 1 1 1 1 1 1 
1 1 1 1 1 1 1 1 1 
1 1 1 1 1 1 1 1 1 
1 1 1 1 1 1 1 1 1 
1 1 1 1 1 1 1 1 1 
1 1 1 1 1 1 1 1 1 
1 1 1 1 1 1 1 1 1 
1 1 1 1 1 1 1 1 1 
1 1 1 1 1 1 1 1 1 
1 1 1 1 1 1 1 1 1 
1 1 1 1 1 1 1 1 1 
1 1 1 1 1 1 1 1 1 
1 1 1 1 1 1 1 1 1 
1 1 1 1 1 1 1 1 1 
1 1 1 1 1 1 1 1 1 
1 1 1 1 1 1 1 1 1 
1 1 1 1 1 1 1 1 1 
1 1 1 1 1 1 1 1 1 
1 1 1 1 1 1 1 1 1 
1 1 1 1 1 1 1 1 1 
1 1 1 1 1 1 1 1 1 
1 1 1 1 1 1 1 1 1 
1 1 1 1 1 1 1 1 1 
1 1 1 1 1 1 1 1 1 
1 1 1 1 1 1 1 1 1 
1 1 1 1 1 1 1 1 1 
1 1 1 1 1 1 1 1 1 
1 1 1 1 1 1 1 1 1 
1 1 1 1 1 1 1 1 1 
1 1 1 1 1 1 1 1 1 
1 1 1 1 1 1 1 1 1 
1 1 1 1 1 1 1 1 1 
1 1 1 1 1 1 1 1 1 
1 1 1 1 1 1 1 1 1 
1 1 1 1 1 1 1 1 1 
1 1 1 1 1 1 1 1 1 
1 1 1 1 1 1 1 1 1 
1 1 1 1 1 1 1 1 1 
1 1 1 1 1 1 1 1 1 
1 1 1 1 1 1 1 1 1 
1 1 1 1 1 1 1 1 1 
1 1 1 1 1 1 1 1 1 
1 1 1 1 1 1 1 1 1 
1 1 1 1 1 1 1 1 1 
1 1 1 1 1 1 1 1 1 
1 1 1 1 1 1 1 1 1 
1 1 1 1 1 1 1 1 1 
1 1 1 1 1 1 1 1 1 
1 1 1 1 1 1 1 1 1 
1 1 1 1 1 1 1 1 1 
1 1 1 1 1 1 1 1 1 
1 1 1 1 1 1 1 1 1 
1 1 1 1 1 1 1 1 1 
1 1 1 1 1 1 1 1 1 
1 1 1 1 1 1 1 1 1 
1 1 1 1 1 1 1 1 1 
1 1 1 1 1 1 1 1 1 
1 1 1 1 1 1 1 1 1 
1 1 1 1 1 1 1 1 1 
1 1 1 1 1 1 1 1 1 
1 1 1 1 1 1 1 1 1 
1 1 1 1 1 1 1 1 1 
1 1 1 1 1 1 1 1 1 
1 1 1 1 1 1 1 1 1 
1 1 1 1 1 1 1 1 1 
1 1 1 1 1 1 1 1 1 
1 1 1 1 1 1 1 1 1 
1 1 1 1 1 1 1 1 1 
1 1 1 1 1 1 1 1 1 
1 1 1 1 1 1 1 1 1 
1 1 1 1 1 1 1 1 1 
1 1 1 1 1 1 1 1 1 
1 1 1 1 1 1 1 1 1 
1 1 1 1 1 1 
i 3 1041 int
0 0 0 0 0 0 0 0 0 
0 0 0 0 0 0 0 0 0 
0 0 0 0 0 0 0 0 0 
0 0 0 0 0 0 0 0 0 
0 0 0 0 0 0 0 0 0 
0 0 0 0 0 0 0 0 0 
0 0 0 0 0 0 0 0 0 
0 0 0 0 0 0 0 0 0 
0 0 0 0 0 0 0 0 0 
0 0 0 0 0 0 0 0 0 
0 0 0 0 0 0 0 0 0 
0 0 0 0 0 0 0 0 0 
0 0 0 0 0 0 0 0 0 
0 0 0 0 0 0 0 0 0 
0 0 0 0 0 0 0 0 0 
0 0 0 0 0 0 0 0 0 
0 0 0 0 0 0 0 0 0 
0 0 0 0 0 0 0 0 0 
0 0 0 0 0 0 0 0 0 
0 0 0 0 0 0 0 0 0 
0 0 0 0 0 0 0 0 0 
0 0 0 0 0 0 0 0 0 
0 0 0 0 0 0 0 0 0 
0 0 0 0 0 0 0 0 0 
0 0 0 0 0 0 0 0 0 
0 0 0 0 0 0 0 0 0 
0 0 0 0 0 0 0 0 0 
0 0 0 0 0 0 0 0 0 
0 0 0 0 0 0 0 0 0 
0 0 0 0 0 0 0 0 0 
0 0 0 0 0 0 0 0 0 
0 0 0 0 0 0 0 0 0 
0 0 0 0 0 0 0 0 0 
0 0 0 0 0 0 0 0 0 
0 0 0 0 0 0 0 0 0 
0 0 0 0 0 0 0 0 0 
0 0 0 0 0 0 0 0 0 
0 0 0 0 0 0 0 0 0 
0 0 0 0 0 0 0 0 0 
0 0 0 0 0 0 0 0 0 
0 0 0 0 0 0 0 0 0 
0 0 0 0 0 0 0 0 0 
0 0 0 0 0 0 0 0 0 
0 0 0 0 0 0 0 0 0 
0 0 0 0 0 0 0 0 0 
0 0 0 0 0 0 0 0 0 
0 0 0 0 0 0 0 0 0 
0 0 0 0 0 0 0 0 0 
0 0 0 0 0 0 0 0 0 
0 0 0 0 0 0 0 0 0 
0 0 0 0 0 0 0 0 0 
0 0 0 0 0 0 0 0 0 
0 0 0 0 0 0 0 0 0 
0 0 0 0 0 0 0 0 0 
0 0 0 0 0 0 0 0 0 
0 0 0 0 0 0 0 0 0 
0 0 0 0 0 0 0 0 0 
0 0 0 0 0 0 0 0 0 
0 0 0 0 0 0 0 0 0 
0 0 0 0 0 0 0 0 0 
0 0 0 0 0 0 0 0 0 
0 0 0 0 0 0 0 0 0 
0 0 0 0 0 0 0 0 0 
0 0 0 0 0 0 0 0 0 
0 0 0 0 0 0 0 0 0 
0 0 0 0 0 0 0 0 0 
0 0 0 0 0 0 0 0 0 
0 0 0 0 0 0 0 0 0 
0 0 0 0 0 0 0 0 0 
0 0 0 0 0 0 0 0 0 
0 0 0 0 0 0 0 0 0 
0 0 0 0 0 0 0 0 0 
0 0 0 0 0 0 0 0 0 
0 0 0 0 0 0 0 0 0 
0 0 0 0 0 0 0 0 0 
0 0 0 0 0 0 0 0 0 
0 0 0 0 0 0 0 0 0 
0 0 0 0 0 0 0 0 0 
0 0 0 0 0 0 0 0 0 
0 0 0 0 0 0 0 0 0 
0 0 0 0 0 0 0 0 0 
0 0 0 0 0 0 0 0 0 
0 0 0 0 0 0 0 0 0 
0 0 0 0 0 0 0 0 0 
0 0 0 0 0 0 0 0 0 
0 0 0 0 0 0 0 0 0 
0 0 0 0 0 0 0 0 0 
0 0 0 0 0 0 0 0 0 
0 0 0 0 0 0 0 0 0 
0 0 0 0 0 0 0 0 0 
0 0 0 0 0 0 0 0 0 
0 0 0 0 0 0 0 0 0 
0 0 0 0 0 0 0 0 0 
0 0 0 0 0 0 0 0 0 
0 0 0 0 0 0 0 0 0 
0 0 0 0 0 0 0 0 0 
0 0 0 0 0 0 0 0 0 
0 0 0 0 0 0 0 0 0 
0 0 0 0 0 0 0 0 0 
0 0 0 0 0 0 0 0 0 
0 0 0 0 0 0 0 0 0 
0 0 0 0 0 0 0 0 0 
0 0 0 0 0 0 0 0 0 
0 0 0 0 0 0 0 0 0 
0 0 0 0 0 0 0 0 0 
0 0 0 0 0 0 0 0 0 
0 0 0 0 0 0 0 0 0 
0 0 0 0 0 0 0 0 0 
0 0 0 0 0 0 0 0 0 
0 0 0 0 0 0 0 0 0 
0 0 0 0 0 0 0 0 0 
0 0 0 0 0 0 0 0 0 
0 0 0 0 0 0 0 0 0 
0 0 0 0 0 0 0 0 0 
0 0 0 0 0 0 0 0 0 
0 0 0 0 0 0 0 0 0 
0 0 0 0 0 0 0 0 0 
0 0 0 0 0 0 0 0 0 
0 0 0 0 0 0 0 0 0 
0 0 0 0 0 0 0 0 0 
0 0 0 0 0 0 0 0 0 
0 0 0 0 0 0 0 0 0 
0 0 0 0 0 0 0 0 0 
0 0 0 0 0 0 0 0 0 
0 0 0 0 0 0 0 0 0 
0 0 0 0 0 0 0 0 0 
0 0 0 0 0 0 0 0 0 
0 0 0 0 0 0 0 0 0 
0 0 0 0 0 0 0 0 0 
0 0 0 0 0 0 0 0 0 
0 0 0 0 0 0 0 0 0 
0 0 0 0 0 0 0 0 0 
0 0 0 0 0 0 0 0 0 
0 0 0 0 0 0 0 0 0 
0 0 0 0 0 0 0 0 0 
0 0 0 0 0 0 0 0 0 
0 0 0 0 0 0 0 0 0 
0 0 0 0 0 0 0 0 0 
0 0 0 0 0 0 0 0 0 
0 0 0 0 0 0 0 0 0 
0 0 0 0 0 0 0 0 0 
0 0 0 0 0 0 0 0 0 
0 0 0 0 0 0 0 0 0 
0 0 0 0 0 0 0 0 0 
0 0 0 0 0 0 0 0 0 
0 0 0 0 0 0 0 0 0 
0 0 0 0 0 0 0 0 0 
0 0 0 0 0 0 0 0 0 
0 0 0 0 0 0 0 0 0 
0 0 0 0 0 0 0 0 0 
0 0 0 0 0 0 0 0 0 
0 0 0 0 0 0 0 0 0 
0 0 0 0 0 0 0 0 0 
0 0 0 0 0 0 0 0 0 
0 0 0 0 0 0 0 0 0 
0 0 0 0 0 0 0 0 0 
0 0 0 0 0 0 0 0 0 
0 0 0 0 0 0 0 0 0 
0 0 0 0 0 0 0 0 0 
0 0 0 0 0 0 0 0 0 
0 0 0 0 0 0 0 0 0 
0 0 0 0 0 0 0 0 0 
0 0 0 0 0 0 0 0 0 
0 0 0 0 0 0 0 0 0 
0 0 0 0 0 0 0 0 0 
0 0 0 0 0 0 0 0 0 
0 0 0 0 0 0 0 0 0 
0 0 0 0 0 0 0 0 0 
0 0 0 0 0 0 0 0 0 
0 0 0 0 0 0 0 0 0 
0 0 0 0 0 0 0 0 0 
0 0 0 0 0 0 0 0 0 
0 0 0 0 0 0 0 0 0 
0 0 0 0 0 0 0 0 0 
0 0 0 0 0 0 0 0 0 
0 0 0 0 0 0 0 0 0 
0 0 0 0 0 0 0 0 0 
0 0 0 0 0 0 0 0 0 
0 0 0 0 0 0 0 0 0 
0 0 0 0 0 0 0 0 0 
0 0 0 0 0 0 0 0 0 
0 0 0 0 0 0 0 0 0 
0 0 0 0 0 0 0 0 0 
0 0 0 0 0 0 0 0 0 
0 0 0 0 0 0 0 0 0 
0 0 0 0 0 0 0 0 0 
0 0 0 0 0 0 0 0 0 
0 0 0 0 0 0 0 0 0 
0 0 0 0 0 0 0 0 0 
0 0 0 0 0 0 0 0 0 
0 0 0 0 0 0 0 0 0 
0 0 0 0 0 0 0 0 0 
0 0 0 0 0 0 0 0 0 
0 0 0 0 0 0 0 0 0 
0 0 0 0 0 0 0 0 0 
0 0 0 0 0 0 0 0 0 
0 0 0 0 0 0 0 0 0 
0 0 0 0 0 0 0 0 0 
0 0 0 0 0 0 0 0 0 
0 0 0 0 0 0 0 0 0 
0 0 0 0 0 0 0 0 0 
0 0 0 0 0 0 0 0 0 
0 0 0 0 0 0 0 0 0 
0 0 0 0 0 0 0 0 0 
0 0 0 0 0 0 0 0 0 
0 0 0 0 0 0 0 0 0 
0 0 0 0 0 0 0 0 0 
0 0 0 0 0 0 0 0 0 
0 0 0 0 0 0 0 0 0 
0 0 0 0 0 0 0 0 0 
0 0 0 0 0 0 0 0 0 
0 0 0 0 0 0 0 0 0 
0 0 0 0 0 0 0 0 0 
0 0 0 0 0 0 0 0 0 
0 0 0 0 0 0 0 0 0 
0 0 0 0 0 0 0 0 0 
0 0 0 0 0 0 0 0 0 
0 0 0 0 0 0 0 0 0 
0 0 0 0 0 0 0 0 0 
0 0 0 0 0 0 0 0 0 
0 0 0 0 0 0 0 0 0 
0 0 0 0 0 0 0 0 0 
0 0 0 0 0 0 0 0 0 
0 0 0 0 0 0 0 0 0 
0 0 0 0 0 0 0 0 0 
0 0 0 0 0 0 0 0 0 
0 0 0 0 0 0 0 0 0 
0 0 0 0 0 0 0 0 0 
0 0 0 0 0 0 0 0 0 
0 0 0 0 0 0 0 0 0 
0 0 0 0 0 0 0 0 0 
0 0 0 0 0 0 0 0 0 
0 0 0 0 0 0 0 0 0 
0 0 0 0 0 0 0 0 0 
0 0 0 0 0 0 0 0 0 
0 0 0 0 0 0 0 0 0 
0 0 0 0 0 0 0 0 0 
0 0 0 0 0 0 0 0 0 
0 0 0 0 0 0 0 0 0 
0 0 0 0 0 0 0 0 0 
0 0 0 0 0 0 0 0 0 
0 0 0 0 0 0 0 0 0 
0 0 0 0 0 0 0 0 0 
0 0 0 0 0 0 0 0 0 
0 0 0 0 0 0 0 0 0 
0 0 0 0 0 0 0 0 0 
0 0 0 0 0 0 0 0 0 
0 0 0 0 0 0 0 0 0 
0 0 0 0 0 0 0 0 0 
0 0 0 0 0 0 0 0 0 
0 0 0 0 0 0 0 0 0 
0 0 0 0 0 0 0 0 0 
0 0 0 0 0 0 0 0 0 
0 0 0 0 0 0 0 0 0 
0 0 0 0 0 0 0 0 0 
0 0 0 0 0 0 0 0 0 
0 0 0 0 0 0 0 0 0 
0 0 0 0 0 0 0 0 0 
0 0 0 0 0 0 0 0 0 
0 0 0 0 0 0 0 0 0 
0 0 0 0 0 0 0 0 0 
0 0 0 0 0 0 0 0 0 
0 0 0 0 0 0 0 0 0 
0 0 0 0 0 0 0 0 0 
0 0 0 0 0 0 0 0 0 
0 0 0 0 0 0 0 0 0 
0 0 0 0 0 0 0 0 0 
0 0 0 0 0 0 0 0 0 
0 0 0 0 0 0 0 0 0 
0 0 0 0 0 0 0 0 0 
0 0 0 0 0 0 0 0 0 
0 0 0 0 0 0 0 0 0 
0 0 0 0 0 0 0 0 0 
0 0 0 0 0 0 0 0 0 
0 0 0 0 0 0 0 0 0 
0 0 0 0 0 0 0 0 0 
0 0 0 0 0 0 0 0 0 
0 0 0 0 0 0 0 0 0 
0 0 0 0 0 0 0 0 0 
0 0 0 0 0 0 0 0 0 
0 0 0 0 0 0 0 0 0 
0 0 0 0 0 0 0 0 0 
0 0 0 0 0 0 0 0 0 
0 0 0 0 0 0 0 0 0 
0 0 0 0 0 0 0 0 0 
0 0 0 0 0 0 0 0 0 
0 0 0 0 0 0 0 0 0 
0 0 0 0 0 0 0 0 0 
0 0 0 0 0 0 0 0 0 
0 0 0 0 0 0 0 0 0 
0 0 0 0 0 0 0 0 0 
0 0 0 0 0 0 0 0 0 
0 0 0 0 0 0 0 0 0 
0 0 0 0 0 0 0 0 0 
0 0 0 0 0 0 0 0 0 
0 0 0 0 0 0 0 0 0 
0 0 0 0 0 0 0 0 0 
0 0 0 0 0 0 0 0 0 
0 0 0 0 0 0 0 0 0 
0 0 0 0 0 0 0 0 0 
0 0 0 0 0 0 0 0 0 
0 0 0 0 0 0 0 0 0 
0 0 0 0 0 0 0 0 0 
0 0 0 0 0 0 0 0 0 
0 0 0 0 0 0 0 0 0 
0 0 0 0 0 0 0 0 0 
0 0 0 0 0 0 0 0 0 
0 0 0 0 0 0 0 0 0 
0 0 0 0 0 0 0 0 0 
0 0 0 0 0 0 0 0 0 
0 0 0 0 0 0 0 0 0 
0 0 0 0 0 0 0 0 0 
0 0 0 0 0 0 0 0 0 
0 0 0 0 0 0 0 0 0 
0 0 0 0 0 0 0 0 0 
0 0 0 0 0 0 0 0 0 
0 0 0 0 0 0 0 0 0 
0 0 0 0 0 0 0 0 0 
0 0 0 0 0 0 0 0 0 
0 0 0 0 0 0 0 0 0 
0 0 0 0 0 0 0 0 0 
0 0 0 0 0 0 0 0 0 
0 0 0 0 0 0 0 0 0 
0 0 0 0 0 0 0 0 0 
0 0 0 0 0 0 0 0 0 
0 0 0 0 0 0 0 0 0 
0 0 0 0 0 0 0 0 0 
0 0 0 0 0 0 0 0 0 
0 0 0 0 0 0 0 0 0 
0 0 0 0 0 0 0 0 0 
0 0 0 0 0 0 0 0 0 
0 0 0 0 0 0 0 0 0 
0 0 0 0 0 0 0 0 0 
0 0 0 0 0 0 0 0 0 
0 0 0 0 0 0 0 0 0 
0 0 0 0 0 0 0 0 0 
0 0 0 0 0 0 0 0 0 
0 0 0 0 0 0 0 0 0 
0 0 0 0 0 0 0 0 0 
0 0 0 0 0 0 0 0 0 
0 0 0 0 0 0 0 0 0 
0 0 0 0 0 0 0 0 0 
0 0 0 0 0 0 0 0 0 
0 0 0 0 0 0 0 0 0 
0 0 0 0 0 0 0 0 0 
0 0 0 0 0 0 0 0 0 
0 0 0 0 0 0 0 0 0 

v 3 1041 double
0 0 -1.00809 0.0320011 -0.30201 -3.1693 -0.0723875 -0.258201 -3.08855 
0.161289 -0.384775 -3.07685 0.0225701 -0.264759 -3.03432 -0.0547895 -0.244818 -2.90492 
0.059008 -0.199292 -2.27842 -0.073182 -0.185656 -2.20588 -0.0104286 -0.398357 -1.97954 
0.17727 -0.259586 -1.95244 -0.00751726 -0.291374 -1.94267 0.00338133 -0.202314 -1.94866 
0.0727492 -0.191094 -1.86896 0.000932047 -0.185507 -1.8252 0.00525555 -0.179237 -1.76903 
-0.0295349 -0.217813 -1.75554 -0.020506 -0.195886 -1.64375 0.0664469 -0.176129 -1.5655 
0.190098 -0.180191 -1.54589 -0.0499472 -0.156625 -1.53076 -0.0166739 -0.315829 -1.49287 
0.0191592 -0.165968 -1.40497 -0.0885939 -0.164217 -1.41232 0.0315197 -0.158784 -1.39941 
0.076366 -0.155137 -1.3922 -0.0972053 -0.167425 -1.27224 -0.0765058 -0.242214 -1.10776 
-0.0714214 -0.178438 -1.09358 -0.116153 -0.146507 -1.05536 -0.00766658 -0.226757 -0.87352 
-0.0586615 -0.124371 -0.838933 0.038162 -0.177553 -0.82622 0.0413018 -0.144672 -0.783634 
0.0287728 -0.141615 -0.641716 -0.0125736 -0.123743 -0.578724 0.0429247 -0.142061 -0.340613 
0.0751019 -0.166385 -0.398681 0.126354 -0.162996 -0.423921 -0.00169053 -0.13947 -0.395069 
-0.0362661 -0.183518 -0.301537 0.0120231 -0.078786 -0.254744 -0.145934 -0.170018 -0.272562 
-0.0252108 -0.126062 -0.227344 0.115409 -0.129555 -0.325442 -0.110333 -0.180511 -0.0602347 
-0.0476116 -0.143061 -7.01345e-14 0.0242316 -0.124981 -1.48241e-14 0.0749032 -0.13184 7.20901e-14 
-0.011223 -0.0951381 5.62866e-14 -0.0340352 -0.109678 -5.43325e-14 0.030955 -0.109441 -6.04425e-14 
0.076742 -0.0639368 -3.06269e-14 -0.0546401 -0.0989205 9.77824e-16 0.0109714 -0.124992 -4.64296e-14 
-0.00795638 -0.00550001 7.99923e-14 0.00174516 -0.123609 -6.22331e-14 0.00656257 -0.125271 1.67805e-14 
0.0489767 -0.134619 -8.59372e-14 0.0193322 -0.0994086 7.20901e-14 -0.0854144 -0.108063 6.41895e-14 
-0.0182229 -0.0836891 -3.85298e-14 0.00210227 -0.0996632 -6.22331e-14 0.0143897 -0.149513 -3.06277e-14 
0.0119532 -0.15027 2.46827e-14 0.0819189 -0.0980738 -7.80359e-14 0.00583158 -0.059853 6.41888e-14 
-0.0773522 -0.0809323 -2.27263e-14 -0.0475828 -0.0994101 -1.76771e-09 -0.0668285 -0.0977167 7.99923e-14 
-0.0515001 -0.0874587 5.62866e-14 -0.0277227 -0.0800309 -3.85298e-14 -0.014915 -0.0785863 -7.01345e-14 
-0.00783765 -0.135264 9.77825e-16 -0.103016 -0.161418 -6.92278e-15 -0.0840832 -0.0749088 1.67805e-14 
-0.124579 -0.0934564 -3.29427e-09 -0.0956537 -0.102347 -7.80359e-14 0.0318518 -0.116091 -5.43325e-14 
-0.0807366 -0.0721526 0.0202289 -0.0495376 -0.1197 -2.93586e-12 0.0305597 -0.126481 9.78598e-16 
0.0528025 -0.0461127 -7.01337e-14 0.110911 -0.113573 7.99923e-14 -0.0440279 -0.0785188 -7.76923e-05 
-0.0539965 -0.0299954 0.00284148 -0.0360523 -0.145602 -3.85298e-14 0.0139567 -0.0998245 -4.64296e-14 
-0.00735182 -0.0822175 -8.59372e-14 0.0341431 -0.122185 4.04847e-14 0.0113483 -0.0295192 0.00594311 
-0.0677278 -0.0574202 7.99923e-14 -0.0879254 -0.0759984 -5.28954e-09 -0.0627363 -0.0758546 -3.06277e-14 
-0.00422115 -0.0905514 2.1522e-13 -0.00480597 -0.0774687 1.64984e-12 0.0599066 -0.113818 -2.27271e-14 
-0.0635019 -0.0689226 4.34045e-07 -0.0464171 -0.0530467 -7.01337e-14 -0.0233147 -0.119387 -7.80351e-14 
0.0216798 -0.0641926 7.99915e-14 -0.0186199 -0.0594041 -5.43325e-14 0.00170677 -0.0902862 -6.92355e-15 
0.0224344 -0.112822 0.0076523 0.0619983 -0.124496 -2.27271e-14 -0.0914873 -0.0832362 0.0118896 
-0.0109357 -0.0812788 9.77811e-16 0.0194543 -0.0892879 8.87918e-15 -0.0564 -0.0850175 0.0345641 
-0.0112688 -0.00562637 5.6373e-14 -0.232743 -0.0737716 -4.64296e-14 -0.102855 -0.0665314 -6.92277e-15 
0.00699268 -0.0939098 -6.22323e-14 0.0443811 -0.116464 -1.48249e-14 0.0524033 -0.114846 -3.96275e-14 
-0.0856852 -0.0394081 -6.92355e-15 -0.0108441 -0.0578623 5.13186e-05 -0.0322139 -0.0266674 -6.64309e-15 
-0.0538972 -0.025142 0.0140869 0.0204561 -0.0884117 1.67798e-14 0.0571637 -0.139142 3.25833e-14 
-0.00735155 -0.0693173 -0.000380447 0.143843 -0.149877 -9.29121e-08 0.260623 -0.141423 -0.032634 
-0.100222 -0.0707408 -4.64288e-14 -0.136591 -0.0449058 -3.8529e-14 -0.12512 -0.0327006 0.00673088 
-0.0182174 -0.0937142 7.99915e-14 -0.0291991 -0.00431363 0.00409618 -0.0517954 -0.0126393 -0.00105855 
0.0380624 -0.0857055 -7.01345e-14 0.0416211 -0.0801792 -3.08966e-07 0.144406 -0.169911 -6.46856e-05 
0.0358509 -0.0522019 7.20901e-14 -0.116454 -0.0538019 5.62874e-14 0.0262513 -0.116966 -7.01337e-14 
-0.0295523 -0.0433416 9.77815e-16 0.0325987 -0.033358 0.00232372 0.0417532 -0.0537732 5.36435e-14 
0.0352586 -0.0641141 -4.64296e-14 0.0220025 -0.0761489 -7.02719e-12 -0.00887212 -0.0870913 1.48318e-08 
0.10453 -0.106409 -0.000284322 0.0649851 -0.133404 -3.85924e-14 0.0662235 -0.117322 4.84317e-14 
0.0968225 -0.0631003 -5.43325e-14 0.0890246 -0.00556831 -7.80359e-14 0.0580854 -0.0206729 -1.47397e-07 
-0.0095702 -0.0266322 -3.06276e-14 0.0284356 -0.0222539 -4.64288e-14 -0.0461885 -0.0109912 -8.59364e-14 
-0.0578974 -0.0634802 -0.000541758 -0.113291 -0.172546 -2.07454e-06 0.0269084 -0.0343573 -6.92277e-15 
0.131852 -0.0840206 -0.0178573 0.164719 -0.0558593 -0.000468477 0.144014 -0.0581768 6.41895e-14 
0.148523 -0.0755236 7.20909e-14 0.0771725 -0.00296056 0.00118012 -0.120537 0.11456 -1.48249e-14 
-0.055492 -0.00647509 6.41895e-14 -0.0391057 -0.0598435 0.00163718 -0.0188983 -0.0530573 -0.00641059 
0.0636557 -0.166624 0.00988483 0.0587141 -0.177839 0.0105398 0.0608424 -0.0434912 4.83757e-14 
0.0971905 -0.0955523 7.50501e-07 0.101083 -0.152661 -1.48249e-14 0.140123 -0.0798773 1.67798e-14 
-0.0256937 -0.0372021 -1.23153e-09 -0.0740576 -0.0165296 0.000218848 -0.059726 -0.0399843 0.0127231 
-0.0499325 -0.0421231 2.11573e-09 0.00538102 -0.0611384 4.85758e-05 0.0269173 -0.0329833 -0.00463499 
0.0369869 -0.156041 0.0306436 0.0534485 -0.0954571 -0.024377 0.0643079 -0.023111 -4.26482e-14 
0.126316 -0.075525 7.20901e-14 0.0781724 -0.096627 -1.12948e-09 0.104148 -0.0740367 -6.92355e-15 
0.0886575 -0.0488212 -7.61813e-10 0.0826052 -0.0626802 -5.43325e-14 -0.11584 -0.00639306 -7.80359e-14 
-0.0717492 -0.0273378 -6.92277e-15 -0.0710766 -0.143231 4.8386e-14 -0.000945775 -0.0441011 -0.000467558 
0.0638914 -0.0109401 0.00233784 0.00886136 -0.0520127 9.39576e-05 0.0806168 -0.0362165 3.77982e-11 
0.101268 -0.0235554 -9.2989e-11 0.0798348 -0.0564286 0.0105538 0.0956516 -0.0656507 -5.27745e-12 
0.0949059 -0.115286 -7.80359e-14 0.103138 -0.0671287 -6.92277e-15 0.0778999 -0.03895 -3.85298e-14 
0.0824927 -0.0500441 7.20909e-14 0.0219657 0.021042 5.62874e-14 -0.125075 0.0153422 0.00207882 
-0.224489 -0.114933 -0.0346875 -0.102743 -0.0450529 0.0410844 -0.045327 -0.147457 -0.0154364 
0.0372055 -0.0653238 -0.000522001 -0.0148535 -0.0583583 -0.0059212 0.0551203 -0.0593551 -5.26443e-09 
-0.0435428 0.0244061 -6.22323e-14 -0.0905265 -0.0199488 9.77825e-16 -0.0688218 -0.0171732 5.97894e-13 
-0.0631061 -0.0445632 0.00416085 0.0151557 -0.015922 -1.0616e-09 0.204615 0.0352631 -4.91162e-11 