# vtk DataFile Version 4.0
Generated by LIGGGHTS
ASCII
DATASET POLYDATA
POINTS 579 float
-0.0658252 -0.193488 -0.175576 -0.0514218 -0.121556 -0.00725242 -0.019198 -0.122166 -0.0062187 
-0.0582572 -0.118774 -0.00138978 -0.0261946 -0.107024 0.00969403 -0.0149813 -0.104865 0.009997 
-0.039009 -0.101791 0.0112981 0.0948638 -0.1014 0.011068 0.0525496 -0.0955885 0.0114983 
0.0137963 -0.0884232 0.0114983 -0.017522 -0.0836661 0.0114983 0.0143463 -0.0848465 0.0114983 
0.011759 -0.0655183 0.0114983 -0.0830772 -0.0651298 0.0114983 -0.0659696 -0.0639872 0.0114983 
-0.018451 -0.0636366 0.0114983 0.0288161 -0.0644785 0.0114983 0.0332331 -0.0638071 0.0117394 
0.044021 -0.0619052 0.0114983 -0.0564503 -0.0591297 0.0114983 -0.0507749 -0.060388 0.0114983 
-0.0350364 -0.0615692 0.0114983 -0.0186114 -0.0605412 0.0114983 0.0289182 -0.0593746 0.0114983 
-0.087361 -0.0578858 0.0114983 0.0207568 -0.0580991 0.0114983 0.0332269 -0.0570532 0.0114983 
0.060352 -0.0562874 0.0114983 -0.0162039 -0.0515581 0.0114983 0.00207194 -0.05285 0.0114983 
0.0247874 -0.0528222 0.0114983 0.0369739 -0.0535135 0.0114983 -0.0952503 -0.0499183 0.0116454 
-0.0184888 -0.0493933 0.0114983 -0.0133553 -0.0479433 0.0114983 0.00284547 -0.04807 0.0114983 
0.0143937 -0.0495466 0.0114983 0.0206258 -0.0498137 0.0114983 0.0240251 -0.0489084 0.0114983 
-0.0171412 -0.0466845 0.0114983 -0.0152339 -0.0441529 0.0114983 0.01964 -0.0469136 0.0114983 
0.029105 -0.0466943 0.0114983 0.0376282 -0.0453124 0.0115127 0.0410397 -0.0445302 0.0114983 
-0.0895404 -0.0426788 0.0114983 -0.0636821 -0.0419125 0.0114983 -0.03906 -0.0407964 0.0114983 
-0.0287086 -0.0406976 0.0114983 -0.0237105 -0.042009 0.0114983 0.00155794 -0.0413287 0.0114983 
0.0500277 -0.0418514 0.0114983 0.0914719 -0.0437426 0.0114983 -0.0832982 -0.0402317 0.0114983 
-0.0772887 -0.0393295 0.0114983 -0.0349845 -0.0405921 0.0114975 -0.0366564 -0.0377518 0.0114983 
-0.0232857 -0.0379412 0.0114983 0.0038415 -0.0392148 0.0114983 -0.0334838 -0.0351106 0.0114983 
-0.00861571 -0.034016 0.0122322 0.00588568 -0.0369781 0.0114863 0.00748948 -0.0344398 0.0116383 
0.0155955 -0.0371824 0.0114983 -0.033229 -0.0319689 0.0114983 -0.0279032 -0.031392 0.0114983 
-0.0242298 -0.0322833 0.0114983 -0.0198096 -0.031644 0.0114983 -0.0170339 -0.0328602 0.0114983 
-0.0128922 -0.0330742 0.0114983 -0.00427105 -0.0333491 0.0117594 0.0665446 -0.0320772 0.0114983 
-0.0107734 -0.0297229 0.0116681 0.00525441 -0.0268094 0.0115149 0.010796 -0.0280823 0.0114983 
0.0346364 -0.0282631 0.0116862 0.0476545 -0.02675 0.0114985 -0.0282203 -0.0252584 0.0114983 
-0.0109133 -0.0229755 0.0114983 0.00156962 -0.0253676 0.0117444 0.0139017 -0.0240993 0.0114983 
0.0357722 -0.0234544 0.0114983 0.0483681 -0.0238246 0.0114981 -0.0359651 -0.0210957 0.0114983 
-0.00425947 -0.0212432 0.0114981 -0.000873064 -0.0217854 0.0114983 0.0109549 -0.0209635 0.0114993 
0.020913 -0.0214703 0.0114983 0.0269338 -0.0218509 0.0121407 -0.0503673 -0.0172989 0.0114983 
-0.0381231 -0.0166181 0.0114983 -0.0343103 -0.018474 0.0114983 -0.0114358 -0.0187369 0.0114983 
-0.00674958 -0.0183488 0.011487 0.00866616 -0.0179019 0.0116447 0.0492094 -0.0162783 0.0114973 
-0.0318399 -0.0156746 0.0114983 -0.0297937 -0.013031 0.0114983 -0.0108102 -0.013987 0.0115074 
-0.00767467 -0.0144856 0.0114031 -0.00138383 -0.0134519 0.0114955 0.0015718 -0.0130005 0.0115922 
0.00796462 -0.0146251 0.0115125 -0.0552137 -0.00971461 0.0114983 -0.0521674 -0.0107713 0.0114983 
-0.0491631 -0.00910538 0.0114983 -0.0227928 -0.00916849 0.0115204 -0.0182474 -0.0108512 0.0118416 
0.0181166 -0.0125398 0.0114786 0.0283001 -0.0119156 0.0116397 0.0408157 -0.0109516 0.0114981 
-0.0257696 -0.00695986 0.0114983 -0.0220082 -0.00604273 0.0114964 -0.00255017 -0.00868341 0.0114983 
0.000469826 -0.00866671 0.0114983 0.00598813 -0.00690269 0.011496 0.0139221 -0.00742229 0.0114983 
0.0261028 -0.00819208 0.0114984 0.0426739 -0.00857321 0.0114984 -0.0607619 -0.00292186 0.0114983 
-0.0453239 -0.00408477 0.0114971 -0.0339493 -0.0027416 0.0114983 -0.0307905 -0.00516183 0.0123609 
-0.0241564 -0.00392748 0.0114983 -0.0161039 -0.00521338 0.0114983 -0.0107925 -0.00377854 0.0114983 
-0.00719794 -0.00426528 0.0114982 -0.00433868 -0.00302152 0.0115806 0.00344764 -0.00520831 0.0114981 
0.011096 -0.00484764 0.0114983 0.0106146 -0.00159752 0.0114983 0.0195251 -0.00436218 0.011498 
0.0251696 -0.00275979 0.011496 -0.0954224 0.00161032 0.0114983 -0.0578676 -0.00138128 0.0114983 
-0.0148568 2.34849e-05 0.0114922 -0.0110599 0.00029599 0.0114982 -0.00804317 -0.000839007 0.0114983 
-0.000363907 -0.000583501 0.0115407 0.0323304 -0.000338025 0.0114963 0.050655 -0.00100697 0.0114983 
-0.0466784 0.00216588 0.0114983 -0.0316255 0.00234597 0.0114983 -0.000137817 0.00240646 0.0115027 
0.0086067 0.0027339 0.0115082 0.0386297 0.00367231 0.0115064 -0.047264 0.007326 0.0114983 
-0.0377341 0.00555238 0.0114983 -0.0311322 0.00625998 0.0114983 -0.0224752 0.0069144 0.0114985 
-0.00693412 0.00584254 0.0114944 0.000153543 0.00547057 0.0114983 0.00583196 0.00674821 0.0115133 
0.024831 0.00617607 0.0114994 0.0320979 0.00727479 0.0114983 0.0372629 0.00634925 0.011612 
0.0440334 0.00736379 0.0114983 -0.0699961 0.00972156 0.0114983 -0.0405354 0.010153 0.0114983 
-0.0156376 0.00980812 0.0114983 -0.00271319 0.0114386 0.0114966 0.00582287 0.010201 0.0115005 
0.0121651 0.00908512 0.0115102 0.00914543 0.0108902 0.0116552 0.0182467 0.0101462 0.0114983 
0.0345835 0.0120005 0.0114983 -0.0861731 0.0126028 0.0114983 -0.0577561 0.0143017 0.0114983 
-0.0130785 0.013768 0.0114983 -0.00575112 0.0137788 0.0114984 -0.000136415 0.0138027 0.0115846 
0.00987663 0.0152743 0.0123769 0.0432936 0.0128249 0.0114983 -0.064579 0.0189997 0.0114983 
-0.0304349 0.0184354 0.0114983 -0.016881 0.0173134 0.0114983 -0.0131209 0.0169466 0.0115628 
-0.00544229 0.0179893 0.0114983 -0.00242713 0.0188438 0.0114984 0.00039914 0.0177045 0.0114985 
0.012634 0.0172451 0.0121935 0.0174054 0.017202 0.0116752 0.0246767 0.0189166 0.0114983 
0.03366 0.0167243 0.0114983 0.0572391 0.0183544 0.0114983 -0.0931592 0.0211001 0.0115837 
-0.0138944 0.0205027 0.0114909 0.0033932 0.019848 0.011491 0.0135202 0.0200241 0.011495 
0.0345724 0.0215504 0.0114983 0.0376531 0.0193324 0.0114983 -0.0958619 0.0263114 0.0114984 
-0.0953531 0.023208 0.0114983 -0.0360839 0.0249658 0.0114983 -0.0331877 0.0234179 0.0114983 
-0.0282883 0.0254679 0.0114983 -0.0192696 0.0239099 0.0114983 -0.0131822 0.0242867 0.0114983 
-0.00637034 0.0243848 0.0114984 0.000251821 0.0255718 0.011499 0.00407904 0.0252718 0.0114983 
0.0187266 0.0235381 0.0114982 -0.0958306 0.029951 0.01165 -0.038194 0.0271052 0.0114983 
-0.0314763 0.0266139 0.0114983 -0.0291054 0.0291031 0.011627 -0.0168189 0.0282798 0.0114983 
-0.0043978 0.0272966 0.0114983 0.000603617 0.029178 0.0114983 0.0104148 0.0276614 0.0114983 
0.0308527 0.0287132 0.0114983 0.0340557 0.0296981 0.0114983 0.0380067 0.0291209 0.0114983 
-0.0282891 0.0320662 0.0114983 -0.0235181 0.0321645 0.0115026 -0.0198405 0.0311847 0.0116397 
-0.00946599 0.0313781 0.0114943 0.0112227 0.0306627 0.0114983 0.0554526 0.0310139 0.011529 
-0.0281088 0.0352902 0.0114983 -0.0251633 0.0359779 0.0115086 -0.0143617 0.0343787 0.0114983 
-0.0113463 0.03443 0.0114983 0.00475045 0.0353729 0.0114983 0.018131 0.0371284 0.0114983 
-0.0758312 0.0379073 0.0114983 -0.0408952 0.0398938 0.0114983 -0.0154631 0.0372111 0.0114983 
0.033001 0.038681 0.0114983 0.0356826 0.0403542 0.0114983 -0.0249382 0.0435925 0.0114983 
-0.0137076 0.0415555 0.0114983 0.00667261 0.0439994 0.0114983 0.0348361 0.0437732 0.0114983 
0.0389093 0.0434447 0.0114983 0.0476262 0.0412872 0.0114983 -0.0524532 0.0480449 0.0115018 
-0.0120783 0.0457855 0.0116369 0.0102268 0.0459689 0.0114983 0.0475616 0.0456751 0.0114983 
0.0823066 0.0463568 0.0114983 -0.0159772 0.0481326 0.0114983 -0.0114853 0.0488667 0.0114983 
0.00284114 0.0506979 0.0114983 0.00616115 0.0479294 0.0114983 0.0162998 0.0501597 0.0114983 
0.0428941 0.0497984 0.0114983 -0.0940178 0.0519963 0.0114983 -0.0486368 0.054233 0.0114983 
-0.0308468 0.0526053 0.0114983 0.00320152 0.0541848 0.0114983 0.00678895 0.0525958 0.0114983 
0.0101476 0.0560085 0.0114983 0.0260403 0.0553989 0.0114983 0.0802253 0.0578041 0.0114983 
-0.0460042 0.06031 0.0114983 0.0667854 0.0584763 0.0114983 -0.0024255 0.0652157 0.0114983 
0.0066209 0.0676353 0.0114983 0.0816461 0.0656326 0.0114983 0.0876136 0.0652124 0.0114983 
-0.0365983 0.0702983 0.0114983 0.0350534 0.0712577 0.0114983 -0.0726063 0.0725257 0.0114983 
0.0135288 0.0781041 0.0114983 0.0871313 0.0785197 0.0114983 0.0187733 0.0815998 0.0114983 
0.00557259 0.0848645 0.0114983 0.0187053 0.0847989 0.0114983 0.0702077 0.0862017 0.0114983 
0.0930661 0.0850108 0.0114983 -0.0925503 0.0893479 0.0114983 -0.0160391 0.0903361 0.0114983 
0.0543144 0.093846 0.0114982 -0.0168509 -0.0980022 0.0122765 0.0466111 -0.0993604 0.0124961 
0.00768117 -0.0949086 0.0124961 0.0912456 -0.0799444 0.0124915 0.016609 -0.0754533 0.0124964 
0.0325255 -0.0751246 0.0116909 -0.0411976 -0.0715873 0.0124961 0.0280745 -0.0709659 0.0124961 
-0.0137421 -0.0652668 0.0124961 -0.0262145 -0.0637723 0.0124961 -0.0376527 -0.0584519 0.0124961 
-0.0260816 -0.0585935 0.0124961 0.00582693 -0.0613047 0.0124961 -0.0172064 -0.0562 0.0124961 
-0.00286012 -0.056646 0.0124961 0.00857439 -0.055888 0.0124961 -0.0637857 -0.0544666 0.0124961 
0.0320593 -0.0518661 0.0126091 -0.0259304 -0.0493027 0.0124961 -0.0214933 -0.0467408 0.0124961 
0.00685332 -0.0464208 0.0124961 0.0449499 -0.0447161 0.0124961 -0.0259243 -0.0422054 0.0150412 
-0.0188196 -0.0424524 0.0124961 0.0331332 -0.0433483 0.012482 -0.0943076 -0.038207 0.0124961 
-0.0885269 -0.0379234 0.0124961 -0.0355981 -0.0404554 0.0144289 -0.0172821 -0.0372784 0.0124961 
-0.00728635 -0.0405313 0.0124961 0.0929446 -0.0399292 0.0124961 -0.0299151 -0.0368009 0.0124961 
0.00139001 -0.0351357 0.0124961 0.0273856 -0.0342966 0.0127795 -0.0940069 -0.0318696 0.0125004 
0.0337686 -0.0331658 0.0124961 -0.0228201 -0.0274441 0.0124961 -0.00705967 -0.0296835 0.0158848 
[...]
POINT_DATA 579
FIELD FieldData 7
id 1 579 int
48 82 160 282 89 30 6 12 52 
77 243 59 112 9 137 73 265 393 
50 343 252 229 83 10 283 173 200 
19 18 267 76 189 71 90 8 307 
251 108 110 85 161 328 75 319 97 
47 179 290 281 268 192 11 125 45 
107 242 202 32 333 425 152 458 418 
406 353 378 314 218 308 240 498 23 
371 438 63 448 164 358 352 475 101 
292 249 368 127 120 214 109 433 211 
197 84 347 172 263 305 344 320 25 
303 72 123 339 64 153 205 36 476 
139 482 384 96 226 146 294 278 279 
366 295 114 227 228 412 162 315 250 
126 185 373 288 244 163 355 217 74 
473 332 150 121 346 201 174 404 190 
447 302 204 253 239 407 266 275 341 
213 136 369 411 61 334 419 359 296 
360 392 198 309 210 291 231 270 421 
318 165 86 264 432 370 140 230 430 
424 449 330 171 257 277 354 331 382 
357 329 133 33 178 255 321 186 38 
99 445 463 215 122 276 102 381 203 
238 100 70 87 49 22 423 405 437 
151 148 396 21 60 317 383 372 65 
177 212 256 398 241 51 20 224 225 
134 159 410 394 254 223 62 237 88 
135 98 367 39 176 306 58 26 188 
216 175 111 191 184 7 113 34 149 
138 95 57 24 46 35 147 37 301 
166 124 13 187 356 105 206 208 363 
397 4 2 119 324 258 262 222 168 
154 68 261 325 375 92 416 132 167 
142 260 40 16 409 42 300 144 313 
348 481 157 336 365 414 219 67 323 
452 285 514 502 523 460 156 335 248 
29 489 337 15 464 487 402 494 429 
155 14 391 387 467 284 361 3 274 
131 362 193 141 459 340 235 129 504 
525 247 181 442 364 444 417 415 342 
79 455 246 456 170 115 232 207 91 
158 395 326 351 221 286 311 195 259 
81 468 293 180 338 94 495 145 116 
484 512 298 451 420 350 41 245 183 
316 345 199 377 27 511 287 271 55 
322 379 431 497 5 17 426 273 117 
66 106 289 471 327 470 454 509 236 
457 428 513 400 44 483 272 399 220 
169 435 401 53 385 69 196 103 297 
310 304 54 209 269 312 80 182 93 
374 128 43 130 234 299 194 28 104 
78 1 233 118 56 31 389 477 413 
507 521 506 436 465 439 443 517 501 
499 500 441 527 380 469 376 403 493 
143 472 390 492 522 488 474 466 480 
434 491 440 408 422 280 490 503 450 
446 519 479 462 349 386 518 526 524 
496 510 427 505 520 508 516 461 534 
485 515 478 388 540 535 533 532 539 
536 537 528 530 486 453 529 538 550 
531 545 547 543 541 542 553 544 548 
552 546 562 551 549 561 560 559 557 
556 554 565 555 566 563 564 576 558 
571 573 568 572 574 575 577 567 578 
570 579 569 
type 1 579 int
1 1 1 1 1 1 1 1 1 
1 1 1 1 1 1 1 1 1 
1 1 1 1 1 1 1 1 1 
1 1 1 1 1 1 1 1 1 
1 1 1 1 1 1 1 1 1 
1 1 1 1 1 1 1 1 1 
1 1 1 1 1 1 1 1 1 
1 1 1 1 1 1 1 1 1 
1 1 1 1 1 1 1 1 1 
1 1 1 1 1 1 1 1 1 
1 1 1 1 1 1 1 1 1 
1 1 1 1 1 1 1 1 1 
1 1 1 1 1 1 1 1 1 
1 1 1 1 1 1 1 1 1 
1 1 1 1 1 1 1 1 1 
1 1 1 1 1 1 1 1 1 
1 1 1 1 1 1 1 1 1 
1 1 1 1 1 1 1 1 1 
1 1 1 1 1 1 1 1 1 
1 1 1 1 1 1 1 1 1 
1 1 1 1 1 1 1 1 1 
1 1 1 1 1 1 1 1 1 
1 1 1 1 1 1 1 1 1 
1 1 1 1 1 1 1 1 1 
1 1 1 1 1 1 1 1 1 
1 1 1 1 1 1 1 1 1 
1 1 1 1 1 1 1 1 1 
1 1 1 1 1 1 1 1 1 
1 1 1 1 1 1 1 1 1 
1 1 1 1 1 1 1 1 1 
1 1 1 1 1 1 1 1 1 
1 1 1 1 1 1 1 1 1 
1 1 1 1 1 1 1 1 1 
1 1 1 1 1 1 1 1 1 
1 1 1 1 1 1 1 1 1 
1 1 1 1 1 1 1 1 1 
1 1 1 1 1 1 1 1 1 
1 1 1 1 1 1 1 1 1 
1 1 1 1 1 1 1 1 1 
1 1 1 1 1 1 1 1 1 
1 1 1 1 1 1 1 1 1 
1 1 1 1 1 1 1 1 1 
1 1 1 1 1 1 1 1 1 
1 1 1 1 1 1 1 1 1 
1 1 1 1 1 1 1 1 1 
1 1 1 1 1 1 1 1 1 
1 1 1 1 1 1 1 1 1 
1 1 1 1 1 1 1 1 1 
1 1 1 1 1 1 1 1 1 
1 1 1 1 1 1 1 1 1 
1 1 1 1 1 1 1 1 1 
1 1 1 1 1 1 1 1 1 
1 1 1 1 1 1 1 1 1 
1 1 1 1 1 1 1 1 1 
1 1 1 1 1 1 1 1 1 
1 1 1 1 1 1 1 1 1 
1 1 1 1 1 1 1 1 1 
1 1 1 1 1 1 1 1 1 
1 1 1 1 1 1 1 1 1 
1 1 1 1 1 1 1 1 1 
1 1 1 1 1 1 1 1 1 
1 1 1 1 1 1 1 1 1 
1 1 1 1 1 1 1 1 1 
1 1 1 1 1 1 1 1 1 
1 1 1 
i 3 579 int
0 0 0 0 0 0 0 0 0 
0 0 0 0 0 0 0 0 0 
0 0 0 0 0 0 0 0 0 
0 0 0 0 0 0 0 0 0 
0 0 0 0 0 0 0 0 0 
0 0 0 0 0 0 0 0 0 
0 0 0 0 0 0 0 0 0 
0 0 0 0 0 0 0 0 0 
0 0 0 0 0 0 0 0 0 
0 0 0 0 0 0 0 0 0 
0 0 0 0 0 0 0 0 0 
0 0 0 0 0 0 0 0 0 
0 0 0 0 0 0 0 0 0 
0 0 0 0 0 0 0 0 0 
0 0 0 0 0 0 0 0 0 
0 0 0 0 0 0 0 0 0 
0 0 0 0 0 0 0 0 0 
0 0 0 0 0 0 0 0 0 
0 0 0 0 0 0 0 0 0 
0 0 0 0 0 0 0 0 0 
0 0 0 0 0 0 0 0 0 
0 0 0 0 0 0 0 0 0 
0 0 0 0 0 0 0 0 0 
0 0 0 0 0 0 0 0 0 
0 0 0 0 0 0 0 0 0 
0 0 0 0 0 0 0 0 0 
0 0 0 0 0 0 0 0 0 
0 0 0 0 0 0 0 0 0 
0 0 0 0 0 0 0 0 0 
0 0 0 0 0 0 0 0 0 
0 0 0 0 0 0 0 0 0 
0 0 0 0 0 0 0 0 0 
0 0 0 0 0 0 0 0 0 
0 0 0 0 0 0 0 0 0 
0 0 0 0 0 0 0 0 0 
0 0 0 0 0 0 0 0 0 
0 0 0 0 0 0 0 0 0 
0 0 0 0 0 0 0 0 0 
0 0 0 0 0 0 0 0 0 
0 0 0 0 0 0 0 0 0 
0 0 0 0 0 0 0 0 0 
0 0 0 0 0 0 0 0 0 
0 0 0 0 0 0 0 0 0 
0 0 0 0 0 0 0 0 0 
0 0 0 0 0 0 0 0 0 
0 0 0 0 0 0 0 0 0 
0 0 0 0 0 0 0 0 0 
0 0 0 0 0 0 0 0 0 
0 0 0 0 0 0 0 0 0 
0 0 0 0 0 0 0 0 0 
0 0 0 0 0 0 0 0 0 
0 0 0 0 0 0 0 0 0 
0 0 0 0 0 0 0 0 0 
0 0 0 0 0 0 0 0 0 
0 0 0 0 0 0 0 0 0 
0 0 0 0 0 0 0 0 0 
0 0 0 0 0 0 0 0 0 
0 0 0 0 0 0 0 0 0 
0 0 0 0 0 0 0 0 0 
0 0 0 0 0 0 0 0 0 
0 0 0 0 0 0 0 0 0 
0 0 0 0 0 0 0 0 0 
0 0 0 0 0 0 0 0 0 
0 0 0 0 0 0 0 0 0 
0 0 0 0 0 0 0 0 0 
0 0 0 0 0 0 0 0 0 
0 0 0 0 0 0 0 0 0 
0 0 0 0 0 0 0 0 0 
0 0 0 0 0 0 0 0 0 
0 0 0 0 0 0 0 0 0 
0 0 0 0 0 0 0 0 0 
0 0 0 0 0 0 0 0 0 
0 0 0 0 0 0 0 0 0 
0 0 0 0 0 0 0 0 0 
0 0 0 0 0 0 0 0 0 
0 0 0 0 0 0 0 0 0 
0 0 0 0 0 0 0 0 0 
0 0 0 0 0 0 0 0 0 
0 0 0 0 0 0 0 0 0 
0 0 0 0 0 0 0 0 0 
0 0 0 0 0 0 0 0 0 
0 0 0 0 0 0 0 0 0 
0 0 0 0 0 0 0 0 0 
0 0 0 0 0 0 0 0 0 
0 0 0 0 0 0 0 0 0 
0 0 0 0 0 0 0 0 0 
0 0 0 0 0 0 0 0 0 
0 0 0 0 0 0 0 0 0 
0 0 0 0 0 0 0 0 0 
0 0 0 0 0 0 0 0 0 
0 0 0 0 0 0 0 0 0 
0 0 0 0 0 0 0 0 0 
0 0 0 0 0 0 0 0 0 
0 0 0 0 0 0 0 0 0 
0 0 0 0 0 0 0 0 0 
0 0 0 0 0 0 0 0 0 
0 0 0 0 0 0 0 0 0 
0 0 0 0 0 0 0 0 0 
0 0 0 0 0 0 0 0 0 
0 0 0 0 0 0 0 0 0 
0 0 0 0 0 0 0 0 0 
0 0 0 0 0 0 0 0 0 
0 0 0 0 0 0 0 0 0 
0 0 0 0 0 0 0 0 0 
0 0 0 0 0 0 0 0 0 
0 0 0 0 0 0 0 0 0 
0 0 0 0 0 0 0 0 0 
0 0 0 0 0 0 0 0 0 
0 0 0 0 0 0 0 0 0 
0 0 0 0 0 0 0 0 0 
0 0 0 0 0 0 0 0 0 
0 0 0 0 0 0 0 0 0 
0 0 0 0 0 0 0 0 0 
0 0 0 0 0 0 0 0 0 
0 0 0 0 0 0 0 0 0 
0 0 0 0 0 0 0 0 0 
0 0 0 0 0 0 0 0 0 
0 0 0 0 0 0 0 0 0 
0 0 0 0 0 0 0 0 0 
0 0 0 0 0 0 0 0 0 
0 0 0 0 0 0 0 0 0 
0 0 0 0 0 0 0 0 0 
0 0 0 0 0 0 0 0 0 
0 0 0 0 0 0 0 0 0 
0 0 0 0 0 0 0 0 0 
0 0 0 0 0 0 0 0 0 
0 0 0 0 0 0 0 0 0 
0 0 0 0 0 0 0 0 0 
0 0 0 0 0 0 0 0 0 
0 0 0 0 0 0 0 0 0 
0 0 0 0 0 0 0 0 0 
0 0 0 0 0 0 0 0 0 
0 0 0 0 0 0 0 0 0 
0 0 0 0 0 0 0 0 0 
0 0 0 0 0 0 0 0 0 
0 0 0 0 0 0 0 0 0 
0 0 0 0 0 0 0 0 0 
0 0 0 0 0 0 0 0 0 
0 0 0 0 0 0 0 0 0 
0 0 0 0 0 0 0 0 0 
0 0 0 0 0 0 0 0 0 
0 0 0 0 0 0 0 0 0 
0 0 0 0 0 0 0 0 0 
0 0 0 0 0 0 0 0 0 
0 0 0 0 0 0 0 0 0 
0 0 0 0 0 0 0 0 0 
0 0 0 0 0 0 0 0 0 
0 0 0 0 0 0 0 0 0 
0 0 0 0 0 0 0 0 0 
0 0 0 0 0 0 0 0 0 
0 0 0 0 0 0 0 0 0 
0 0 0 0 0 0 0 0 0 
0 0 0 0 0 0 0 0 0 
0 0 0 0 0 0 0 0 0 
0 0 0 0 0 0 0 0 0 
0 0 0 0 0 0 0 0 0 
0 0 0 0 0 0 0 0 0 
0 0 0 0 0 0 0 0 0 
0 0 0 0 0 0 0 0 0 
0 0 0 0 0 0 0 0 0 
0 0 0 0 0 0 0 0 0 
0 0 0 0 0 0 0 0 0 
0 0 0 0 0 0 0 0 0 
0 0 0 0 0 0 0 0 0 
0 0 0 0 0 0 0 0 0 
0 0 0 0 0 0 0 0 0 
0 0 0 0 0 0 0 0 0 
0 0 0 0 0 0 0 0 0 
0 0 0 0 0 0 0 0 0 
0 0 0 0 0 0 0 0 0 
0 0 0 0 0 0 0 0 0 
0 0 0 0 0 0 0 0 0 
0 0 0 0 0 0 0 0 0 
0 0 0 0 0 0 0 0 0 
0 0 0 0 0 0 0 0 0 
0 0 0 0 0 0 0 0 0 
0 0 0 0 0 0 0 0 0 
0 0 0 0 0 0 0 0 0 
0 0 0 0 0 0 0 0 0 
0 0 0 0 0 0 0 0 0 
0 0 0 0 0 0 0 0 0 
0 0 0 0 0 0 0 0 0 
0 0 0 0 0 0 0 0 0 
0 0 0 0 0 0 0 0 0 
0 0 0 0 0 0 0 0 0 
0 0 0 0 0 0 0 0 0 
0 0 0 0 0 0 0 0 0 
0 0 0 0 0 0 0 0 0 
0 0 0 0 0 0 0 0 0 
0 0 0 0 0 0 0 0 0 
0 0 0 0 0 0 0 0 0 
0 0 0 0 0 0 0 0 0 
0 0 0 0 0 0 0 0 0 

v 3 579 double
-0.176432 -0.479133 -1.91583 -0.150544 -0.34945 -0.606545 -0.00995307 -0.36973 -0.589589 
-0.235423 -0.349844 -0.503862 -0.219404 -0.368802 -0.188161 -0.0504897 -0.215186 -0.221466 
-0.130769 -0.28505 -0.0627364 -0.0652621 -0.178092 -0.112542 0.119977 -0.23488 8.87996e-15 
0.0283574 -0.202639 1.67805e-14 -0.0712659 -0.258215 4.04846e-14 0.117248 -0.205681 4.83852e-14 
-0.0115046 -0.16491 7.99915e-14 -0.211423 -0.182789 -8.59365e-14 -0.123107 -0.145498 -2.27271e-14 
-0.0598722 -0.124393 9.77819e-16 0.0753871 -0.164351 9.77818e-16 0.0863639 -0.127092 -0.0609835 
0.116578 -0.107457 -6.92278e-15 -0.260551 -0.197813 7.99717e-14 -0.116977 -0.146521 -5.57297e-14 
-0.0883677 -0.164229 -5.43318e-14 -0.0137142 -0.123754 -6.92356e-15 0.0655015 -0.301825 -7.82994e-13 
-0.301437 -0.109924 -6.22331e-14 0.0244282 -0.122767 1.67805e-14 0.138281 -0.322852 3.38554e-08 
0.152919 -0.112596 7.99923e-14 -0.0710402 -0.151594 2.46827e-14 -0.0132745 -0.153486 -1.48241e-14 
0.039098 -0.131888 6.41895e-14 0.175599 -0.259601 3.68317e-12 0.0690451 -0.0388647 -0.0439985 
-0.0245789 -0.0776578 8.82633e-06 -0.0657836 -0.150561 -5.43325e-14 -0.0686673 -0.114399 -7.80351e-14 
0.0528025 -0.0461127 -7.01337e-14 0.0170107 -0.215603 -4.00125e-09 0.0487322 -0.110069 -7.42075e-10 
-0.0128752 -0.0774646 -5.97991e-05 -0.0491645 -0.112284 4.83852e-14 0.0321974 -0.211777 6.65372e-08 
0.173949 -0.188394 -6.92355e-15 0.0632742 -0.162709 -0.0541706 0.0859922 -0.134537 4.04854e-14 
-0.196451 -0.0721638 -7.80351e-14 -0.207955 -0.100323 1.67805e-14 -0.117929 -0.111617 7.20909e-14 
-0.0891539 -0.10397 7.99923e-14 -0.0384713 -0.0942391 1.68915e-05 -0.022287 -0.101469 8.42076e-14 
0.0819189 -0.0980738 -7.80359e-14 0.237567 -0.179309 9.77811e-16 -0.16543 -0.0749504 1.67798e-14 
-0.147591 -0.0617739 2.46819e-14 -0.133586 -0.16223 1.19725e-05 -0.0908126 -0.0969936 4.7425e-11 
-0.0762823 -0.0847877 -6.22331e-14 0.00174052 -0.123613 1.90247e-09 -0.0974534 -0.0753011 8.78499e-08 
-0.0290714 -0.134219 -0.00153487 0.0153415 -0.114275 -0.0158922 0.0154852 -0.182033 -0.0374876 
-0.100898 -0.183743 6.58195e-10 -0.179949 -0.167772 2.64322e-13 -0.0492737 -0.0465818 1.13538e-05 
-0.103972 -0.0357502 1.67798e-14 -0.0538481 -0.0704437 -1.02049e-05 -0.0413032 -0.0566742 4.75562e-06 
0.102895 -0.226693 0.000220132 -0.282978 -0.216349 0.0357703 0.1155 -0.0691733 1.67805e-14 
0.041817 -0.116401 -0.023669 0.104213 0.0206384 0.0118977 0.192128 -0.0893434 7.20909e-14 
0.146443 -0.0316947 -0.0128518 0.111782 -0.0366472 -0.000448609 -0.202353 -0.0869908 7.94366e-14 
0.0178654 -0.0642055 -7.01337e-14 -0.096659 -0.113786 0.0434416 -0.0727491 -0.0378961 -1.79158e-11 
0.11184 -0.0271827 -8.59364e-14 0.180214 -0.0484417 0.000414883 -0.0483744 0.0327948 5.62386e-14 
0.0414859 0.0328708 0.000458935 -0.0305394 -0.0570878 -1.16152e-13 0.0335258 -0.0946817 0.0309568 
0.0670314 -0.0509685 2.46648e-14 0.0681819 -0.359888 0.0301477 -0.114304 -0.036751 -7.80359e-14 
-0.0723147 -0.0251349 -6.92277e-15 -0.0942656 -0.032961 -4.64296e-14 0.0136036 -0.0187709 1.38349e-06 
-0.0774129 -0.0771913 -0.0151872 0.0414187 -0.053438 0.0696076 0.102609 0.00745804 0.00616146 
-0.100261 0.0105193 -1.14171e-11 -0.033123 -0.0330319 5.99897e-08 0.0296758 -0.0267407 -0.0117916 
-0.0338903 0.175571 -0.0492341 -0.00686293 0.0249779 -0.00257509 -0.0236792 0.00193677 0.0694837 
-0.0477251 -0.0710523 0.0398632 -0.115189 -0.0100952 4.04854e-14 -0.114595 -0.0296264 -2.27263e-14 
-0.111381 -0.0247977 7.99923e-14 -0.00117316 0.0039012 -0.0223757 -0.166602 -0.0141403 0.0213047 
-0.0440297 -0.154024 -0.163239 0.0573995 -0.280478 0.118848 0.110325 0.0286594 -0.000126741 
-0.0460237 0.0105669 2.46819e-14 -0.171366 -0.0163571 0.000728455 -0.00128667 -0.00693289 -0.00185204 
-0.00138628 -0.00247452 1.57477e-05 -0.0839573 -0.0853803 0.0173556 -0.0858321 -0.0426895 3.01755e-06 
0.0262117 -0.038933 -7.80995e-05 0.133428 0.0162959 -0.00125169 -0.152383 -0.00313868 -6.22331e-14 
-0.0813351 0.00418079 -0.00102748 -0.0429559 -0.0071172 7.20901e-14 -0.0120298 -0.0426873 0.0429615 
-0.138797 0.0118721 -0.000180738 -0.0552757 -0.0205739 6.74447e-12 0.0334824 0.00334923 -4.84806e-09 
-0.00524555 -0.0124046 0.000287152 0.0162119 -0.0621378 0.048715 -0.0185562 -0.00982167 -0.0161076 
-0.0846653 0.0571762 7.91875e-08 -0.0687835 0.0873492 -2.95638e-09 -0.00222012 -0.0193845 -0.000319152 
0.153425 -0.0435724 0.0205473 -0.0458678 -0.0632517 2.49903e-12 -0.152815 0.0208366 -4.64288e-14 
-0.0719767 -0.0810437 0.0178612 0.0131094 0.0108715 2.73948e-06 0.0350333 0.035948 2.08376e-06 
0.0196954 -0.0423845 -0.0111167 0.116024 0.025697 0.00123197 0.123954 -0.0364056 -4.64288e-14 
-0.12407 0.0296384 1.67798e-14 -0.0869264 0.00596092 8.87996e-15 -0.0880399 -0.021675 0.0527741 
0.00225535 0.0352076 0.0142814 0.111657 -0.0544919 0.0248432 -0.146884 -0.0361511 -3.06269e-14 
-0.0658756 0.00308033 3.47455e-12 -0.110953 -0.0231122 5.79266e-06 -0.0524566 0.0120642 -0.00047694 
-0.0353528 0.0413754 0.0292677 0.011843 0.0362659 -0.000460427 0.0895136 0.150504 -0.580754 
0.0571797 -0.00989795 0.000105174 0.075422 0.057527 7.99915e-14 0.124311 -0.0363631 -0.0352907 
0.04784 -0.0558878 3.51184e-05 -0.244169 0.0115509 -4.64288e-14 -0.0707427 -0.0216026 -6.22324e-14 
-0.0964324 0.0342502 -4.16978e-09 -0.0139529 -0.000453978 0.00419477 0.0397121 -0.0320513 -0.0320121 
0.139374 0.0604402 -0.0398711 0.0590082 0.0370647 0.0125369 0.0835952 0.0835956 1.1508e-12 
0.109077 0.0754953 -8.33777e-14 -0.253804 -0.0211839 2.46819e-14 -0.126487 -0.000192742 -6.92278e-15 
-0.0117615 0.028625 -1.13118e-11 0.0122962 0.0375421 -0.000122444 -0.035416 0.00121402 0.021767 
0.0835678 0.0444967 0.0624181 0.120675 0.00355795 -4.64296e-14 -0.167766 0.0350649 7.20901e-14 
-0.0447008 0.00755921 -1.64496e-06 -0.0559776 0.0640957 -1.47593e-10 -0.0229563 0.00536388 -0.242954 
0.0132834 0.0493681 -2.9943e-07 0.0208757 0.0571001 -0.000157897 0.0136152 0.0321087 -0.000539039 
0.117997 0.0405292 0.00192704 0.135604 0.148301 0.0628595 0.0534841 0.0589099 2.3982e-11 
0.116679 0.00997228 -7.01337e-14 0.154376 -0.053045 9.77819e-16 -0.123332 -0.0479244 -0.0589982 
-0.0401287 0.14834 0.00384825 -0.111219 0.0232609 0.0783603 0.05814 0.0784939 0.00276596 
0.174291 0.0633417 -7.31902e-15 0.171406 0.00122047 4.04854e-14 0.0159631 0.0465584 -0.000178821 
-0.100212 -0.00957304 1.04318e-05 -0.0488783 0.0335064 9.78591e-16 -0.040235 0.0831537 8.87919e-15 
-0.151542 0.114308 7.05962e-11 -0.0281594 0.12406 -2.89726e-09 0.00653358 0.140397 -7.74468e-08 
0.0262129 0.0738367 -1.72545e-05 -0.00400773 -0.00989954 -0.01146 0.0165934 0.0421537 8.21664e-05 
0.00533798 0.0296509 0.00337359 0.0594 0.124083 0.0247999 -0.0513519 0.0311343 3.25833e-14 
-0.0333014 0.0618403 -9.69805e-11 -0.0618682 0.0966466 -0.0116608 -0.0055071 0.04822 1.67798e-14 
0.0676118 0.0720251 -8.44451e-14 0.0296749 -0.0258203 4.79063e-10 -0.00942728 0.0842174 3.66308e-05 
0.0590057 0.0494184 -5.43325e-14 0.0626426 0.0671174 7.99915e-14 0.0724148 0.0488648 4.83852e-14 
-0.0142513 0.0883741 0.000339567 -0.206072 0.0869649 0.00147243 -0.065494 -0.0424912 0.0462124 
-0.0636933 0.0686286 0.006999 0.0277392 0.0809722 2.42624e-11 0.311371 0.157146 0.0365001 
0.0122038 0.0877289 -1.28571e-12 -0.00360484 0.0910968 -0.000342878 -0.000642026 0.0568922 3.71855e-06 
0.00238528 0.0738573 -6.02772e-07 0.0262607 0.10509 2.44289e-12 0.0296364 0.161358 -3.06269e-14 
0.0460335 0.0666101 -3.06277e-14 -0.0786047 0.0960862 -3.06276e-14 0.0236115 0.0699936 1.41711e-07 
0.121184 0.127911 1.29735e-08 0.134086 0.124803 1.16279e-11 -0.041004 0.0866999 5.62866e-14 
-0.0631411 0.157312 -1.08171e-14 -0.0212892 0.121857 -1.17639e-10 0.0620083 0.133988 7.20901e-14 
0.020435 0.102656 4.04854e-14 0.0854855 0.0865169 1.67805e-14 -0.380307 0.485527 0.0187037 
0.0247031 0.10957 -0.0567678 -0.0347847 0.0958445 7.22715e-08 0.116987 0.0990845 -4.64288e-14 
0.244382 0.10979 1.67805e-14 -0.0624609 0.0634363 -3.38481e-09 -0.00348859 0.116333 -2.90378e-07 
0.00484292 0.101906 5.62874e-14 -0.0331029 0.12362 -5.43325e-14 0.0819195 0.196512 -1.68388e-10 
0.0897284 0.0922176 -6.92355e-15 0.0395281 0.0702905 7.78027e-05 -0.276491 0.116283 5.62866e-14 
-0.117159 0.107771 9.78588e-16 -0.00217578 0.111984 5.62874e-14 0.0179084 0.160334 -7.80359e-14 
0.037703 0.113635 -7.59632e-14 0.0674929 0.110858 8.87996e-15 0.204566 0.172638 7.99923e-14 
-0.205584 0.178029 2.46819e-14 0.143523 0.216519 9.78591e-16 0.0165436 0.139171 -6.22323e-14 
-0.0338103 0.133459 -3.85298e-14 0.255167 0.172086 -5.43318e-14 0.276561 0.1442 3.25825e-14 
-0.100144 0.153771 9.78584e-16 0.0931124 0.163339 7.99923e-14 0.0808479 0.158322 -7.80359e-14 
0.0455602 0.163079 9.77821e-16 -0.0534662 -0.0888359 -3.8529e-14 0.0223214 0.0417926 3.25833e-14 
0.0679132 0.212181 7.20901e-14 0.00996573 0.0386905 2.46827e-14 0.281829 0.407321 4.04847e-14 
-0.0400439 -0.10397 3.82388e-14 0.0454476 0.170612 -1.50695e-12 -0.0108942 0.229031 1.67798e-14 
0.163583 -0.0422001 0.00117269 0.0623348 -0.0692984 -0.0830864 0.111015 -0.25451 -4.68735e-14 
0.0934596 -0.278348 4.60462e-14 -0.0573975 -0.244816 -0.022036 0.00723804 -0.44745 0.00864854 
0.15467 -0.483171 -0.361564 -0.0733486 -0.185681 -5.20335e-14 0.058916 -0.199315 6.66945e-14 
-0.0489937 -0.15667 4.08862e-14 0.00524138 -0.196375 7.13829e-11 -0.0964228 -0.167457 -1.07378e-14 
-0.0212441 -0.218288 -3.65472e-14 0.0458811 -0.17868 -4.11573e-16 -0.0310626 -0.10202 6.66956e-14 
-0.0301607 -0.217836 4.60472e-14 0.0257262 -0.141495 2.02368e-14 -0.325288 -0.240484 7.18587e-14 
0.000587495 -0.0343462 0.0320988 -0.0140938 -0.142998 -2.17683e-09 -0.0284129 -0.0979772 -1.74629e-11 
-0.0917389 -0.336296 -7.62265e-14 0.0776696 -0.127474 3.57199e-14 -0.136009 -0.107449 -0.0910937 
-0.0427512 -0.085448 1.62863e-11 0.0864186 -0.156505 -0.0301555 -0.00566252 -0.0858025 -2.66225e-06 
-0.169289 -0.058804 -2.6223e-14 -0.178288 -0.151635 -0.00982196 -0.0556622 -0.0696509 -4.28732e-13 
-0.032158 -0.0949471 1.50737e-14 0.237884 -0.17765 5.63714e-14 -0.107693 -0.116468 -8.25883e-06 
-0.0120524 -0.157049 9.1881e-06 0.20006 -0.456008 0.0801099 0.033377 -0.0174587 0.0150101 
0.0649338 -0.103674 -1.42366e-10 -0.109769 -0.0576411 4.0718e-07 0.0839047 -0.00817041 0.0609104 
0.133756 -0.0356523 1.36832e-13 -0.226406 -0.0263306 3.57209e-14 -0.0493103 -0.0107287 6.51229e-13 
-0.0408012 -0.130294 -0.166173 0.0607389 -0.103543 -0.0294801 -0.0124141 -0.486088 0.0136148 
0.135676 0.161871 -0.405224 -0.028712 -0.264827 -0.831364 -0.042348 -0.179014 -0.0861115 
0.0154699 -0.119943 0.0142524 0.172719 -0.0989739 -3.63113e-07 0.179624 -0.0544969 -0.000834623 
0.191688 -0.0361798 -4.12611e-16 -0.213002 0.233227 -0.321264 -0.081543 -0.0724637 0.0193031 
-0.0157316 -0.0691543 0.00052718 0.213773 -0.234405 0.0674342 -0.142216 -0.141825 -0.12213 
0.10614 -0.064603 0.0933351 0.0188594 -0.232616 0.0419987 -0.0798185 -0.126533 -0.0210389 
-0.0675625 -0.0817864 -7.46787e-05 0.00487079 -0.00789972 -0.000600736 -0.0621607 0.152366 -0.174868 
-0.0487758 -0.0262249 0.102712 0.00283373 -0.0964951 0.0233398 0.184693 -0.0521123 1.45335e-07 
0.104411 -0.0273697 0.0176981 0.175795 -0.0260702 -5.20324e-14 -0.11913 -0.0300814 0.0075874 
-0.0674189 -0.0436186 -8.25603e-06 -0.128965 0.165153 0.00111362 -0.0505553 -0.0663074 0.0039056 
0.0415727 0.0798873 -0.0422163 -0.0641527 0.00550142 -0.087867 0.0667188 0.00838908 0.0134146 
-0.00415013 0.0135074 0.123628 -0.0852475 -0.169656 0.0138476 0.0851945 -0.0604461 -0.186845 
0.0377035 -0.409965 -0.342568 0.157728 0.019254 9.56859e-11 -0.110391 -0.0221649 0.00140586 
-0.0893725 -0.0551741 -0.0531975 -0.049449 -0.00087458 0.0161173 0.0110586 0.0129245 -0.0415734 
0.0330193 0.0048276 -0.00698525 0.0392485 -0.0132141 -0.0917274 0.178871 0.0401809 0.0024149 
-0.0346013 -0.024764 -1.50778e-14 -0.0680702 -0.0568955 0.111452 0.0837908 -0.0539599 0.00986455 
-0.0698001 0.0533754 -0.0417751 -0.0330395 -0.0645886 -0.0249111 -0.0170107 -0.0838809 0.0738184 
0.158687 0.0546718 -0.0410746 0.159281 -0.03595 5.32155e-05 -0.190979 0.000231113 6.15324e-14 
-0.0549016 -0.0116252 -0.00898723 0.0141561 0.00917233 0.0129237 0.00549468 -0.0598677 0.0723632 
0.0790825 -0.0380527 0.00782911 0.126386 0.0951243 -0.0284241 -0.0755795 -0.00739477 -3.02234e-08 
-0.0381227 0.0110053 0.000221864 -0.0775785 -0.0619439 0.00932871 -0.0348313 0.112259 0.0693764 
-0.103626 0.050119 0.0149685 -0.0474353 0.0287984 0.135481 -0.0271146 0.0481195 0.0690225 
0.0361809 0.0225279 -0.0228938 0.276691 0.176542 0.164627 0.0146312 -0.0383815 -4.44229e-08 
-0.45813 -0.212767 0.00215518 -0.0559193 0.0428402 0.00233504 -0.00811244 0.0614516 0.00173536 
0.138484 -0.136913 -0.036196 0.201672 -0.0330511 0.0434128 0.0586892 0.0452125 -0.069775 
0.160036 0.100815 -0.0604657 0.206524 0.0322807 -0.0551994 -0.390652 0.121936 -7.85808e-13 