# vtk DataFile Version 4.0
Generated by LIGGGHTS
ASCII
DATASET POLYDATA
POINTS 921 float
-0.0121631 0.00356084 0.0531669 -0.0290174 -0.164687 -0.430649 -0.0871889 -0.209551 -0.421693 
0.0767209 -0.15091 -0.399297 -0.0753629 -0.181035 -0.385221 0.0773195 -0.170108 -0.359888 
0.0335912 -0.172283 -0.318549 0.0858563 -0.160882 -0.318278 -0.00560986 -0.119489 -0.277255 
0.0225036 -0.167273 -0.232542 0.044312 -0.167789 -0.233611 0.0773535 -0.182146 -0.212384 
-0.0375746 -0.155447 -0.214892 0.0218454 -0.155396 -0.202391 0.0758004 -0.148006 -0.176161 
0.0444653 -0.126372 -0.073298 -0.0615678 -0.123204 -0.0639733 -0.01572 -0.140484 -0.0393206 
0.0859553 -0.125681 -0.0366003 0.00297404 -0.128535 -0.0346388 -0.0252201 -0.11997 -0.0352286 
0.0491097 -0.117293 -0.0286886 -0.0957686 -0.115961 -0.0248254 0.0120985 -0.114397 -0.0201524 
-0.0111957 -0.117203 -0.0180797 -0.0316724 -0.113251 -0.00989029 0.0473602 -0.110494 -0.00591391 
0.0849918 -0.110375 -0.00476557 0.0946994 -0.116439 -0.00185546 -0.0274153 -0.108819 -0.00290768 
-0.0942647 -0.107176 0.00233723 -0.0596125 -0.107224 0.00201651 0.015744 -0.106812 0.00357397 
0.0547756 -0.10651 0.00288044 -0.0644812 -0.105004 0.00817368 -0.0166473 -0.102047 0.0108526 
-0.00652212 -0.10311 0.0106798 -0.0832886 -0.101121 0.0112168 -0.0350955 -0.0982178 0.0114983 
-0.0942645 -0.0950916 0.0114983 -0.0224239 -0.0949448 0.0114983 0.0104619 -0.0975001 0.0114983 
0.0311597 -0.0970998 0.0114983 0.0357043 -0.0971982 0.0114983 0.0764298 -0.0917782 0.0114983 
0.0958672 -0.0916817 0.0114983 -0.0749649 -0.0877231 0.0114983 0.0158771 -0.090332 0.0114983 
0.0311834 -0.0907369 0.0114983 0.0715391 -0.0907478 0.0114983 -0.0828895 -0.083609 0.0114983 
-0.021613 -0.087286 0.0114983 -0.0183263 -0.0848049 0.0114983 0.0329892 -0.0861449 0.0114983 
0.0956662 -0.0863618 0.0114983 -0.0722858 -0.0830549 0.0114983 -0.0246229 -0.081863 0.0114983 
0.0619199 -0.0811958 0.0114983 -0.0766381 -0.0774845 0.0114983 -0.0315204 -0.0794557 0.0114983 
-0.00109676 -0.0759152 0.0114983 0.00432664 -0.0735781 0.0114983 0.0363509 -0.0740235 0.0114983 
-0.0956241 -0.0727438 0.0116019 -0.0538622 -0.0702584 0.0114983 -0.0228321 -0.0716596 0.0114983 
-0.0185956 -0.0713149 0.0114983 0.00768809 -0.071836 0.0114983 0.0210748 -0.0719226 0.0114983 
-0.0958895 -0.0679542 0.0114983 -0.0589002 -0.0664449 0.0114983 -0.0379561 -0.0663695 0.0114983 
-0.0245061 -0.0680842 0.0114983 0.0728011 -0.0691159 0.0114983 -0.0929068 -0.0625883 0.0114983 
-0.0605437 -0.0622609 0.0114983 -0.0485322 -0.0625224 0.0114983 -0.0428826 -0.0637118 0.0114983 
-0.0219237 -0.0649319 0.0114983 0.0109367 -0.0637942 0.0114983 0.0143911 -0.0641898 0.0114983 
0.0290728 -0.0623659 0.0114983 -0.0959895 -0.0591438 0.0114983 -0.0929473 -0.0593279 0.0114983 
-0.032871 -0.061556 0.0114983 0.00910113 -0.060938 0.0114983 0.0162594 -0.0615269 0.0114983 
-0.0917617 -0.0563233 0.0114983 -0.0884551 -0.0571811 0.0114983 -0.0494136 -0.0591974 0.0114983 
0.0194802 -0.0563801 0.0114983 0.0509866 -0.0568719 0.0114983 -0.0543884 -0.0537888 0.0114983 
-0.0320634 -0.0525532 0.0114983 -0.0282092 -0.0524523 0.0114983 0.00376728 -0.0535722 0.0114983 
0.0123079 -0.0529153 0.0114983 -0.0376026 -0.0502932 0.0114973 -0.0347549 -0.0512303 0.0114996 
-0.0287656 -0.0493595 0.0114983 -0.00804724 -0.0491014 0.0114983 -0.00468702 -0.0503623 0.0114983 
0.00713356 -0.0495597 0.0114983 0.025842 -0.0510265 0.0114983 0.041643 -0.0499546 0.0114983 
0.0955372 -0.0509893 0.0114983 -0.0376292 -0.0471657 0.0114983 -0.0302003 -0.0445427 0.0114983 
-0.0176988 -0.0468974 0.0114983 0.0189192 -0.0476487 0.0114983 -0.0760448 -0.0427438 0.0114983 
-0.0553117 -0.0419535 0.011658 -0.0521422 -0.0433316 0.0114983 -0.0307561 -0.0415588 0.0114983 
-0.0221587 -0.0443413 0.011517 0.0137515 -0.0444497 0.0114983 0.0296523 -0.0444144 0.0114983 
-0.00918766 -0.0394617 0.0114976 0.00447545 -0.0376645 0.0114986 0.0115804 -0.0380433 0.0114983 
0.0133026 -0.0406038 0.0114983 0.0329252 -0.0391014 0.0114983 0.0387589 -0.0401164 0.0114983 
0.0750638 -0.0387621 0.0114983 0.0959593 -0.0374508 0.0115186 -0.0369919 -0.0354098 0.0114983 
-0.03011 -0.037929 0.0114981 -0.00842328 -0.0345163 0.0114983 -0.00249312 -0.035223 0.0114983 
0.00151479 -0.0363926 0.0114983 0.00620737 -0.0347955 0.0114982 0.00921687 -0.0349403 0.0114983 
0.013648 -0.0357566 0.0114983 0.0718404 -0.0361826 0.0114983 0.0813055 -0.0343295 0.0114983 
-0.0816713 -0.0316056 0.0114983 -0.0754415 -0.0314033 0.0114984 -0.0343528 -0.0326731 0.0114983 
-0.0259991 -0.0301829 0.0114983 -0.00628879 -0.0324034 0.0114984 -0.000803883 -0.0327293 0.0114987 
0.0101861 -0.0312461 0.0114953 0.030758 -0.0338468 0.0114983 0.0337331 -0.0317494 0.0117864 
0.0490885 -0.0315702 0.0114983 -0.0911009 -0.0266964 0.0114983 -0.0342329 -0.0293217 0.0114982 
-0.0266155 -0.0266339 0.0114933 -0.0123402 -0.0289 0.0114983 0.00184367 -0.028019 0.0114983 
0.00508842 -0.0289626 0.0115027 0.00795096 -0.0279476 0.0114979 0.0132861 -0.027345 0.0114983 
0.0216014 -0.0328387 0.0114988 0.0364413 -0.0304192 0.0114975 0.0435198 -0.0282929 0.0114983 
0.0482085 -0.027606 0.0114983 -0.0869888 -0.0260518 0.0114983 -0.0645028 -0.0242239 0.0114983 
0.00267222 -0.0248886 0.0114971 0.0301944 -0.0275478 0.0115245 0.0414677 -0.0245328 0.0114983 
0.0952186 -0.0250754 0.0114983 -0.0650225 -0.0206427 0.0115124 -0.0533216 -0.0219618 0.0114983 
-0.0260547 -0.0200152 0.0144463 -0.00727337 -0.0208358 0.0114983 0.000944585 -0.0224373 0.011503 
0.00546542 -0.0230265 0.011498 0.00362431 -0.0207003 0.0119399 0.0098637 -0.0195972 0.012324 
0.0805919 -0.0232005 0.0114983 -0.0635795 -0.0171515 0.0114983 -0.045623 -0.0160712 0.0114983 
-0.0290028 -0.0184546 0.0116798 -0.00152449 -0.0162586 0.0114953 0.00481699 -0.0179 0.0114941 
0.0130168 -0.0191313 0.0114981 0.0190468 -0.0176736 0.0114982 0.025703 -0.0172656 0.0114983 
0.0302749 -0.0209966 0.0114903 0.0313641 -0.0174398 0.0114983 0.036006 -0.019088 0.0114983 
0.047132 -0.0189803 0.0114983 -0.0888286 -0.011949 0.0114983 -0.0858503 -0.0127731 0.0114984 
-0.0531913 -0.0123276 0.0114983 -0.0426313 -0.0148611 0.0114983 -0.0293765 -0.0129559 0.0114983 
0.0249529 -0.0144015 0.0122358 0.0328545 -0.0143564 0.0115874 0.0604421 -0.0129777 0.0114983 
-0.065795 -0.00918726 0.0114983 -0.0516629 -0.00938108 0.0114983 -0.045489 -0.0130056 0.0114983 
-0.0302391 -0.00995661 0.0114983 -0.0270386 -0.0108879 0.0114983 -0.0227066 -0.01031 0.0116463 
-0.0195964 -0.0115091 0.0115053 -0.0120183 -0.00942989 0.0114983 -0.00576146 -0.00946687 0.0114983 
-0.00321287 -0.0111265 0.0114972 0.00110843 -0.00949721 0.0114983 0.00596972 -0.0109321 0.0114974 
0.0626355 -0.0098946 0.0114983 -0.0957253 -0.0075644 0.0114983 -0.0922525 -0.0084234 0.0114983 
-0.0775811 -0.00761124 0.0114983 -0.0595884 -0.00757251 0.0114983 -0.056201 -0.00748923 0.0114983 
-0.0458005 -0.00735709 0.0114983 -0.0320946 -0.00755535 0.0115271 -0.0287237 -0.00741317 0.011981 
-0.0192278 -0.00807937 0.0114983 -0.0173973 -0.00567851 0.0114988 -0.0109119 -0.00652491 0.0115663 
-0.0075181 -0.00651223 0.011497 0.00767775 -0.00842455 0.0114983 0.0114268 -0.00821764 0.011491 
0.0144924 -0.00905764 0.0114983 0.0511941 -0.00614301 0.0114976 0.0584721 -0.00591702 0.0114983 
0.0683506 -0.00612724 0.0114983 0.082943 -0.00768923 0.0114983 0.0897104 -0.00545114 0.0114983 
-0.0653247 -0.00465506 0.0114983 -0.0487779 -0.0037164 0.0114983 -0.0207961 -0.00491507 0.0114969 
-0.014779 -0.00420255 0.0115029 -0.0105979 -0.00352774 0.0114953 -0.00620648 -0.00378232 0.0116974 
0.000912816 -0.00462292 0.0114983 0.0140999 -0.00375703 0.011691 0.0168744 -0.002619 0.0115759 
0.0205915 -0.00346833 0.0114983 0.0299317 -0.00507908 0.0141679 0.0352954 -0.00358663 0.0114999 
0.0671803 -0.00292623 0.0114983 0.0750264 -0.00286872 0.0114983 -0.0945891 0.000763929 0.0114983 
-0.0633718 0.000622507 0.0114983 -0.0494569 0.000679306 0.0114983 -0.0216133 -0.00188871 0.0115147 
-0.021058 0.00106889 0.011534 -0.0110505 0.00184468 0.0114983 0.00723307 -0.00123408 0.0114993 
0.0177185 0.000246745 0.0114989 0.0230088 -0.00061186 0.0116257 0.0360276 -0.000608541 0.0114983 
0.0469562 0.00145705 0.0114983 0.0694888 -0.000711673 0.0114983 0.0725948 -0.000203075 0.0114983 
-0.0475997 0.00344888 0.0114983 -0.0447011 0.00427344 0.0114933 -0.0414017 0.00182599 0.0114983 
-0.0090587 0.00419532 0.0114981 -0.00438417 0.00267471 0.0114983 0.00454524 0.00391762 0.0114984 
0.00772105 0.00393701 0.0114983 0.01538 0.0039448 0.011498 0.018467 0.00314466 0.0114979 
0.0216714 0.005183 0.0114902 0.0348108 0.00297231 0.0114983 0.0378633 0.00191047 0.0114983 
0.0408688 0.00374492 0.0114983 0.0500373 0.00401805 0.0114983 0.0952423 0.00280117 0.0114983 
-0.0655363 0.00543789 0.0114983 -0.0620126 0.005524 0.0114983 -0.0571005 0.00658312 0.0114983 
-0.0491099 0.00769145 0.0114982 -0.0424048 0.00619826 0.0115028 -0.0339784 0.00671761 0.0114983 
-0.0167 0.00865463 0.0114983 -0.0131131 0.00804723 0.0114998 -0.00974132 0.0070705 0.0119306 
-0.00612572 0.00562009 0.0114811 -0.00459518 0.00822454 0.0114986 0.00618997 0.00669417 0.0114983 
0.00865008 0.00854895 0.0115047 0.0346638 0.00813649 0.0114984 0.038261 0.00748491 0.0114983 
-0.0953831 0.0103679 0.0114983 -0.0818908 0.00953676 0.0114983 -0.0267585 0.0131465 0.0129359 
-0.0211782 0.0102613 0.0114984 -0.0145044 0.0106945 0.0117633 -0.00743411 0.00916868 0.011499 
-0.00175575 0.00976423 0.0115299 0.0221734 0.0122867 0.0115112 0.0276188 0.0116194 0.0124035 
0.0314593 0.0104326 0.0114983 0.0394968 0.0104932 0.0114959 0.0418299 0.00861897 0.0115601 
0.0439813 0.0119036 0.0114983 0.0712928 0.00915933 0.0114983 0.074702 0.00937182 0.0114983 
0.0789119 0.0121774 0.0114983 -0.0939678 0.0138872 0.0114984 -0.0913956 0.0154335 0.0114984 
-0.0582105 0.0141876 0.0114983 -0.0502037 0.0136975 0.0114983 -0.0460481 0.0144001 0.0114983 
-0.0435129 0.0124548 0.0114983 -0.0428575 0.0157639 0.0114981 -0.0234966 0.0155212 0.0114984 
-0.0185523 0.0118631 0.0115333 -0.0191566 0.0162017 0.0117821 -0.0155368 0.0140509 0.0114983 
[...]
POINT_DATA 921
FIELD FieldData 7
id 1 921 int
918 30 89 12 6 105 206 52 356 
77 59 397 243 363 208 2 4 386 
189 416 324 265 9 112 154 262 10 
200 526 119 137 229 222 393 258 267 
406 252 73 343 83 514 173 76 50 
125 242 108 328 319 283 498 307 110 
19 290 8 97 591 18 192 333 75 
353 281 90 161 458 418 71 409 268 
85 11 179 202 378 32 523 475 101 
251 47 45 152 588 487 107 358 489 
433 63 425 240 371 263 438 314 218 
308 540 546 214 559 525 23 665 502 
352 615 205 693 598 695 726 566 109 
460 694 496 339 139 550 448 249 476 
600 172 120 521 612 123 587 292 164 
211 197 719 760 782 127 611 626 524 
482 436 320 721 744 578 571 669 599 
743 603 610 630 495 368 809 785 500 
507 663 344 713 734 72 677 459 294 
305 84 510 572 185 444 278 656 798 
753 643 681 366 64 153 561 527 756 
767 705 585 227 36 315 772 25 347 
303 146 395 701 715 373 346 217 114 
174 412 651 575 768 250 499 617 653 
639 456 288 820 562 355 538 295 201 
501 474 473 150 757 765 533 689 279 
834 861 574 302 384 74 239 228 842 
745 592 244 652 783 163 601 420 411 
96 162 226 564 121 275 484 727 731 
833 759 690 573 687 257 334 253 289 
404 488 624 625 472 817 730 637 511 
532 740 579 210 204 199 332 627 616 
293 742 586 563 213 522 545 369 548 
342 61 291 553 432 264 407 316 855 
552 345 266 468 497 341 707 485 537 
512 360 597 136 165 577 836 779 576 
642 584 662 359 431 296 539 766 392 
280 329 419 678 640 190 565 717 786 
590 86 604 754 668 848 230 732 680 
424 198 33 434 231 866 508 549 605 
421 628 676 589 461 309 133 277 178 
613 674 811 547 520 519 720 655 276 
692 370 140 331 708 536 804 318 675 
649 171 534 102 629 471 513 486 445 
435 483 641 769 408 330 422 457 618 
379 151 100 650 382 631 450 22 357 
688 255 186 354 327 238 270 551 87 
462 385 321 437 38 463 215 49 381 
405 383 99 470 70 21 269 317 372 
446 423 148 399 122 60 449 241 159 
304 177 212 51 237 256 394 224 254 
398 166 20 509 134 39 223 176 88 
98 65 46 62 111 396 135 147 225 
187 124 203 26 175 149 216 34 57 
58 188 35 301 410 191 306 138 13 
7 113 37 24 367 95 184 68 375 
260 132 261 168 529 325 541 167 92 
300 144 348 481 142 285 313 634 336 
42 477 156 389 528 464 16 568 635 
365 594 413 638 494 40 414 15 581 
729 506 467 593 583 750 518 452 595 
543 737 623 439 387 710 219 157 155 
718 364 666 129 248 67 337 755 469 
821 402 284 335 403 14 787 807 835 
29 323 660 862 141 679 443 784 847 
504 274 442 644 828 340 816 235 560 
417 247 3 91 131 193 800 698 712 
723 733 849 773 854 415 181 465 683 
391 843 818 814 704 246 170 709 671 
667 686 633 361 207 429 531 795 455 
657 794 380 736 646 376 79 286 557 
728 126 810 648 824 115 749 661 614 
94 362 158 596 776 619 517 351 696 
684 670 582 326 447 789 858 722 739 
441 608 311 622 845 427 799 869 390 
802 492 700 480 350 762 672 703 180 
788 659 221 271 245 183 868 831 777 
746 714 27 763 606 544 775 505 813 
682 81 647 466 781 491 451 232 117 
41 145 195 791 143 636 558 685 832 
5 298 440 66 567 236 699 751 774 
570 822 516 454 654 702 490 259 853 
621 580 106 555 55 645 691 116 738 
607 859 761 797 17 697 338 388 542 
530 493 322 778 620 515 673 287 426 
209 377 658 430 747 53 220 169 428 
400 272 790 273 103 349 54 310 556 
44 401 478 554 196 569 128 43 69 
80 312 297 93 299 664 182 234 479 
194 503 130 374 104 233 1 56 453 
31 28 118 78 602 812 841 830 867 
863 857 535 793 724 632 801 871 844 
846 850 706 851 840 865 838 609 796 
873 764 860 803 711 806 839 771 741 
864 748 852 752 856 805 823 872 837 
780 870 716 792 826 725 825 827 878 
808 770 758 829 819 874 879 884 887 
886 876 881 815 880 882 883 885 877 
893 899 875 735 895 889 888 894 900 
898 897 896 911 890 892 908 910 891 
907 902 912 905 913 901 909 903 904 
906 914 922 923 919 917 920 925 915 
924 921 916 
type 1 921 int
1 1 1 1 1 1 1 1 1 
1 1 1 1 1 1 1 1 1 
1 1 1 1 1 1 1 1 1 
1 1 1 1 1 1 1 1 1 
1 1 1 1 1 1 1 1 1 
1 1 1 1 1 1 1 1 1 
1 1 1 1 1 1 1 1 1 
1 1 1 1 1 1 1 1 1 
1 1 1 1 1 1 1 1 1 
1 1 1 1 1 1 1 1 1 
1 1 1 1 1 1 1 1 1 
1 1 1 1 1 1 1 1 1 
1 1 1 1 1 1 1 1 1 
1 1 1 1 1 1 1 1 1 
1 1 1 1 1 1 1 1 1 
1 1 1 1 1 1 1 1 1 
1 1 1 1 1 1 1 1 1 
1 1 1 1 1 1 1 1 1 
1 1 1 1 1 1 1 1 1 
1 1 1 1 1 1 1 1 1 
1 1 1 1 1 1 1 1 1 
1 1 1 1 1 1 1 1 1 
1 1 1 1 1 1 1 1 1 
1 1 1 1 1 1 1 1 1 
1 1 1 1 1 1 1 1 1 
1 1 1 1 1 1 1 1 1 
1 1 1 1 1 1 1 1 1 
1 1 1 1 1 1 1 1 1 
1 1 1 1 1 1 1 1 1 
1 1 1 1 1 1 1 1 1 
1 1 1 1 1 1 1 1 1 
1 1 1 1 1 1 1 1 1 
1 1 1 1 1 1 1 1 1 
1 1 1 1 1 1 1 1 1 
1 1 1 1 1 1 1 1 1 
1 1 1 1 1 1 1 1 1 
1 1 1 1 1 1 1 1 1 
1 1 1 1 1 1 1 1 1 
1 1 1 1 1 1 1 1 1 
1 1 1 1 1 1 1 1 1 
1 1 1 1 1 1 1 1 1 
1 1 1 1 1 1 1 1 1 
1 1 1 1 1 1 1 1 1 
1 1 1 1 1 1 1 1 1 
1 1 1 1 1 1 1 1 1 
1 1 1 1 1 1 1 1 1 
1 1 1 1 1 1 1 1 1 
1 1 1 1 1 1 1 1 1 
1 1 1 1 1 1 1 1 1 
1 1 1 1 1 1 1 1 1 
1 1 1 1 1 1 1 1 1 
1 1 1 1 1 1 1 1 1 
1 1 1 1 1 1 1 1 1 
1 1 1 1 1 1 1 1 1 
1 1 1 1 1 1 1 1 1 
1 1 1 1 1 1 1 1 1 
1 1 1 1 1 1 1 1 1 
1 1 1 1 1 1 1 1 1 
1 1 1 1 1 1 1 1 1 
1 1 1 1 1 1 1 1 1 
1 1 1 1 1 1 1 1 1 
1 1 1 1 1 1 1 1 1 
1 1 1 1 1 1 1 1 1 
1 1 1 1 1 1 1 1 1 
1 1 1 1 1 1 1 1 1 
1 1 1 1 1 1 1 1 1 
1 1 1 1 1 1 1 1 1 
1 1 1 1 1 1 1 1 1 
1 1 1 1 1 1 1 1 1 
1 1 1 1 1 1 1 1 1 
1 1 1 1 1 1 1 1 1 
1 1 1 1 1 1 1 1 1 
1 1 1 1 1 1 1 1 1 
1 1 1 1 1 1 1 1 1 
1 1 1 1 1 1 1 1 1 
1 1 1 1 1 1 1 1 1 
1 1 1 1 1 1 1 1 1 
1 1 1 1 1 1 1 1 1 
1 1 1 1 1 1 1 1 1 
1 1 1 1 1 1 1 1 1 
1 1 1 1 1 1 1 1 1 
1 1 1 1 1 1 1 1 1 
1 1 1 1 1 1 1 1 1 
1 1 1 1 1 1 1 1 1 
1 1 1 1 1 1 1 1 1 
1 1 1 1 1 1 1 1 1 
1 1 1 1 1 1 1 1 1 
1 1 1 1 1 1 1 1 1 
1 1 1 1 1 1 1 1 1 
1 1 1 1 1 1 1 1 1 
1 1 1 1 1 1 1 1 1 
1 1 1 1 1 1 1 1 1 
1 1 1 1 1 1 1 1 1 
1 1 1 1 1 1 1 1 1 
1 1 1 1 1 1 1 1 1 
1 1 1 1 1 1 1 1 1 
1 1 1 1 1 1 1 1 1 
1 1 1 1 1 1 1 1 1 
1 1 1 1 1 1 1 1 1 
1 1 1 1 1 1 1 1 1 
1 1 1 1 1 1 1 1 1 
1 1 1 1 1 1 1 1 1 
1 1 1 
i 3 921 int
0 0 0 0 0 0 0 0 0 
0 0 0 0 0 0 0 0 0 
0 0 0 0 0 0 0 0 0 
0 0 0 0 0 0 0 0 0 
0 0 0 0 0 0 0 0 0 
0 0 0 0 0 0 0 0 0 
0 0 0 0 0 0 0 0 0 
0 0 0 0 0 0 0 0 0 
0 0 0 0 0 0 0 0 0 
0 0 0 0 0 0 0 0 0 
0 0 0 0 0 0 0 0 0 
0 0 0 0 0 0 0 0 0 
0 0 0 0 0 0 0 0 0 
0 0 0 0 0 0 0 0 0 
0 0 0 0 0 0 0 0 0 
0 0 0 0 0 0 0 0 0 
0 0 0 0 0 0 0 0 0 
0 0 0 0 0 0 0 0 0 
0 0 0 0 0 0 0 0 0 
0 0 0 0 0 0 0 0 0 
0 0 0 0 0 0 0 0 0 
0 0 0 0 0 0 0 0 0 
0 0 0 0 0 0 0 0 0 
0 0 0 0 0 0 0 0 0 
0 0 0 0 0 0 0 0 0 
0 0 0 0 0 0 0 0 0 
0 0 0 0 0 0 0 0 0 
0 0 0 0 0 0 0 0 0 
0 0 0 0 0 0 0 0 0 
0 0 0 0 0 0 0 0 0 
0 0 0 0 0 0 0 0 0 
0 0 0 0 0 0 0 0 0 
0 0 0 0 0 0 0 0 0 
0 0 0 0 0 0 0 0 0 
0 0 0 0 0 0 0 0 0 
0 0 0 0 0 0 0 0 0 
0 0 0 0 0 0 0 0 0 
0 0 0 0 0 0 0 0 0 
0 0 0 0 0 0 0 0 0 
0 0 0 0 0 0 0 0 0 
0 0 0 0 0 0 0 0 0 
0 0 0 0 0 0 0 0 0 
0 0 0 0 0 0 0 0 0 
0 0 0 0 0 0 0 0 0 
0 0 0 0 0 0 0 0 0 
0 0 0 0 0 0 0 0 0 
0 0 0 0 0 0 0 0 0 
0 0 0 0 0 0 0 0 0 
0 0 0 0 0 0 0 0 0 
0 0 0 0 0 0 0 0 0 
0 0 0 0 0 0 0 0 0 
0 0 0 0 0 0 0 0 0 
0 0 0 0 0 0 0 0 0 
0 0 0 0 0 0 0 0 0 
0 0 0 0 0 0 0 0 0 
0 0 0 0 0 0 0 0 0 
0 0 0 0 0 0 0 0 0 
0 0 0 0 0 0 0 0 0 
0 0 0 0 0 0 0 0 0 
0 0 0 0 0 0 0 0 0 
0 0 0 0 0 0 0 0 0 
0 0 0 0 0 0 0 0 0 
0 0 0 0 0 0 0 0 0 
0 0 0 0 0 0 0 0 0 
0 0 0 0 0 0 0 0 0 
0 0 0 0 0 0 0 0 0 
0 0 0 0 0 0 0 0 0 
0 0 0 0 0 0 0 0 0 
0 0 0 0 0 0 0 0 0 
0 0 0 0 0 0 0 0 0 
0 0 0 0 0 0 0 0 0 
0 0 0 0 0 0 0 0 0 
0 0 0 0 0 0 0 0 0 
0 0 0 0 0 0 0 0 0 
0 0 0 0 0 0 0 0 0 
0 0 0 0 0 0 0 0 0 
0 0 0 0 0 0 0 0 0 
0 0 0 0 0 0 0 0 0 
0 0 0 0 0 0 0 0 0 
0 0 0 0 0 0 0 0 0 
0 0 0 0 0 0 0 0 0 
0 0 0 0 0 0 0 0 0 
0 0 0 0 0 0 0 0 0 
0 0 0 0 0 0 0 0 0 
0 0 0 0 0 0 0 0 0 
0 0 0 0 0 0 0 0 0 
0 0 0 0 0 0 0 0 0 
0 0 0 0 0 0 0 0 0 
0 0 0 0 0 0 0 0 0 
0 0 0 0 0 0 0 0 0 
0 0 0 0 0 0 0 0 0 
0 0 0 0 0 0 0 0 0 
0 0 0 0 0 0 0 0 0 
0 0 0 0 0 0 0 0 0 
0 0 0 0 0 0 0 0 0 
0 0 0 0 0 0 0 0 0 
0 0 0 0 0 0 0 0 0 
0 0 0 0 0 0 0 0 0 
0 0 0 0 0 0 0 0 0 
0 0 0 0 0 0 0 0 0 
0 0 0 0 0 0 0 0 0 
0 0 0 0 0 0 0 0 0 
0 0 0 0 0 0 0 0 0 
0 0 0 0 0 0 0 0 0 
0 0 0 0 0 0 0 0 0 
0 0 0 0 0 0 0 0 0 
0 0 0 0 0 0 0 0 0 
0 0 0 0 0 0 0 0 0 
0 0 0 0 0 0 0 0 0 
0 0 0 0 0 0 0 0 0 
0 0 0 0 0 0 0 0 0 
0 0 0 0 0 0 0 0 0 
0 0 0 0 0 0 0 0 0 
0 0 0 0 0 0 0 0 0 
0 0 0 0 0 0 0 0 0 
0 0 0 0 0 0 0 0 0 
0 0 0 0 0 0 0 0 0 
0 0 0 0 0 0 0 0 0 
0 0 0 0 0 0 0 0 0 
0 0 0 0 0 0 0 0 0 
0 0 0 0 0 0 0 0 0 
0 0 0 0 0 0 0 0 0 
0 0 0 0 0 0 0 0 0 
0 0 0 0 0 0 0 0 0 
0 0 0 0 0 0 0 0 0 
0 0 0 0 0 0 0 0 0 
0 0 0 0 0 0 0 0 0 
0 0 0 0 0 0 0 0 0 
0 0 0 0 0 0 0 0 0 
0 0 0 0 0 0 0 0 0 
0 0 0 0 0 0 0 0 0 
0 0 0 0 0 0 0 0 0 
0 0 0 0 0 0 0 0 0 
0 0 0 0 0 0 0 0 0 
0 0 0 0 0 0 0 0 0 
0 0 0 0 0 0 0 0 0 
0 0 0 0 0 0 0 0 0 
0 0 0 0 0 0 0 0 0 
0 0 0 0 0 0 0 0 0 
0 0 0 0 0 0 0 0 0 
0 0 0 0 0 0 0 0 0 
0 0 0 0 0 0 0 0 0 
0 0 0 0 0 0 0 0 0 
0 0 0 0 0 0 0 0 0 
0 0 0 0 0 0 0 0 0 
0 0 0 0 0 0 0 0 0 
0 0 0 0 0 0 0 0 0 
0 0 0 0 0 0 0 0 0 
0 0 0 0 0 0 0 0 0 
0 0 0 0 0 0 0 0 0 
0 0 0 0 0 0 0 0 0 
0 0 0 0 0 0 0 0 0 
0 0 0 0 0 0 0 0 0 
0 0 0 0 0 0 0 0 0 
0 0 0 0 0 0 0 0 0 
0 0 0 0 0 0 0 0 0 
0 0 0 0 0 0 0 0 0 
0 0 0 0 0 0 0 0 0 
0 0 0 0 0 0 0 0 0 
0 0 0 0 0 0 0 0 0 
0 0 0 0 0 0 0 0 0 
0 0 0 0 0 0 0 0 0 
0 0 0 0 0 0 0 0 0 
0 0 0 0 0 0 0 0 0 
0 0 0 0 0 0 0 0 0 
0 0 0 0 0 0 0 0 0 
0 0 0 0 0 0 0 0 0 
0 0 0 0 0 0 0 0 0 
0 0 0 0 0 0 0 0 0 
0 0 0 0 0 0 0 0 0 
0 0 0 0 0 0 0 0 0 
0 0 0 0 0 0 0 0 0 
0 0 0 0 0 0 0 0 0 
0 0 0 0 0 0 0 0 0 
0 0 0 0 0 0 0 0 0 
0 0 0 0 0 0 0 0 0 
0 0 0 0 0 0 0 0 0 
0 0 0 0 0 0 0 0 0 
0 0 0 0 0 0 0 0 0 
0 0 0 0 0 0 0 0 0 
0 0 0 0 0 0 0 0 0 
0 0 0 0 0 0 0 0 0 
0 0 0 0 0 0 0 0 0 
0 0 0 0 0 0 0 0 0 
0 0 0 0 0 0 0 0 0 
0 0 0 0 0 0 0 0 0 
0 0 0 0 0 0 0 0 0 
0 0 0 0 0 0 0 0 0 
0 0 0 0 0 0 0 0 0 
0 0 0 0 0 0 0 0 0 
0 0 0 0 0 0 0 0 0 
0 0 0 0 0 0 0 0 0 
0 0 0 0 0 0 0 0 0 
0 0 0 0 0 0 0 0 0 
0 0 0 0 0 0 0 0 0 
0 0 0 0 0 0 0 0 0 
0 0 0 0 0 0 0 0 0 
0 0 0 0 0 0 0 0 0 
0 0 0 0 0 0 0 0 0 
0 0 0 0 0 0 0 0 0 
0 0 0 0 0 0 0 0 0 
0 0 0 0 0 0 0 0 0 
0 0 0 0 0 0 0 0 0 
0 0 0 0 0 0 0 0 0 
0 0 0 0 0 0 0 0 0 
0 0 0 0 0 0 0 0 0 
0 0 0 0 0 0 0 0 0 
0 0 0 0 0 0 0 0 0 
0 0 0 0 0 0 0 0 0 
0 0 0 0 0 0 0 0 0 
0 0 0 0 0 0 0 0 0 
0 0 0 0 0 0 0 0 0 
0 0 0 0 0 0 0 0 0 
0 0 0 0 0 0 0 0 0 
0 0 0 0 0 0 0 0 0 
0 0 0 0 0 0 0 0 0 
0 0 0 0 0 0 0 0 0 
0 0 0 0 0 0 0 0 0 
0 0 0 0 0 0 0 0 0 
0 0 0 0 0 0 0 0 0 
0 0 0 0 0 0 0 0 0 
0 0 0 0 0 0 0 0 0 
0 0 0 0 0 0 0 0 0 
0 0 0 0 0 0 0 0 0 
0 0 0 0 0 0 0 0 0 
0 0 0 0 0 0 0 0 0 
0 0 0 0 0 0 0 0 0 
0 0 0 0 0 0 0 0 0 
0 0 0 0 0 0 0 0 0 
0 0 0 0 0 0 0 0 0 
0 0 0 0 0 0 0 0 0 
0 0 0 0 0 0 0 0 0 
0 0 0 0 0 0 0 0 0 
0 0 0 0 0 0 0 0 0 
0 0 0 0 0 0 0 0 0 
0 0 0 0 0 0 0 0 0 
0 0 0 0 0 0 0 0 0 
0 0 0 0 0 0 0 0 0 
0 0 0 0 0 0 0 0 0 
0 0 0 0 0 0 0 0 0 
0 0 0 0 0 0 0 0 0 
0 0 0 0 0 0 0 0 0 
0 0 0 0 0 0 0 0 0 
0 0 0 0 0 0 0 0 0 
0 0 0 0 0 0 0 0 0 
0 0 0 0 0 0 0 0 0 
0 0 0 0 0 0 0 0 0 
0 0 0 0 0 0 0 0 0 
0 0 0 0 0 0 0 0 0 
0 0 0 0 0 0 0 0 0 
0 0 0 0 0 0 0 0 0 
0 0 0 0 0 0 0 0 0 
0 0 0 0 0 0 0 0 0 
0 0 0 0 0 0 0 0 0 
0 0 0 0 0 0 0 0 0 
0 0 0 0 0 0 0 0 0 
0 0 0 0 0 0 0 0 0 
0 0 0 0 0 0 0 0 0 
0 0 0 0 0 0 0 0 0 
0 0 0 0 0 0 0 0 0 
0 0 0 0 0 0 0 0 0 
0 0 0 0 0 0 0 0 0 
0 0 0 0 0 0 0 0 0 
0 0 0 0 0 0 0 0 0 
0 0 0 0 0 0 0 0 0 
0 0 0 0 0 0 0 0 0 
0 0 0 0 0 0 0 0 0 
0 0 0 0 0 0 0 0 0 
0 0 0 0 0 0 0 0 0 
0 0 0 0 0 0 0 0 0 
0 0 0 0 0 0 0 0 0 
0 0 0 0 0 0 0 0 0 
0 0 0 0 0 0 0 0 0 
0 0 0 0 0 0 0 0 0 
0 0 0 0 0 0 0 0 0 
0 0 0 0 0 0 0 0 0 
0 0 0 0 0 0 0 0 0 
0 0 0 0 0 0 0 0 0 
0 0 0 0 0 0 0 0 0 
0 0 0 0 0 0 0 0 0 
0 0 0 0 0 0 0 0 0 
0 0 0 0 0 0 0 0 0 
0 0 0 0 0 0 0 0 0 
0 0 0 0 0 0 0 0 0 
0 0 0 0 0 0 0 0 0 
0 0 0 0 0 0 0 0 0 
0 0 0 0 0 0 0 0 0 
0 0 0 0 0 0 0 0 0 
0 0 0 0 0 0 0 0 0 
0 0 0 0 0 0 0 0 0 
0 0 0 0 0 0 0 0 0 
0 0 0 0 0 0 0 0 0 
0 0 0 0 0 0 0 0 0 
0 0 0 0 0 0 0 0 0 
0 0 0 0 0 0 0 0 0 
0 0 0 0 0 0 0 0 0 
0 0 0 0 0 0 0 0 0 
0 0 0 0 0 0 0 0 0 
0 0 0 0 0 0 0 0 0 
0 0 0 0 0 0 0 0 0 
0 0 0 0 0 0 0 0 0 
0 0 0 0 0 0 0 0 0 
0 0 0 0 0 0 0 0 0 
0 0 0 0 0 0 0 0 0 
0 0 0 0 0 0 0 0 0 
0 0 0 0 0 0 0 0 0 
0 0 0 0 0 0 0 0 0 

v 3 921 double
-0 -0 -1 -0.0504897 -0.215186 -2.94865 -0.219404 -0.368802 -2.91534 
-0.0652621 -0.178092 -2.83972 -0.130769 -0.28505 -2.78992 0.110456 -0.254487 -2.703 
0.0931829 -0.278324 -2.54855 0.119796 -0.234867 -2.54366 0.0372947 -0.0785268 -2.37966 
0.0320011 -0.30201 -2.1883 0.106629 -0.303408 -2.19296 0.161289 -0.384775 -2.09585 
-0.0723875 -0.258201 -2.10755 0.0225701 -0.264759 -2.05332 -0.0547895 -0.244818 -1.92392 
0.059008 -0.199292 -1.29742 -0.073182 -0.185656 -1.22488 -0.0104286 -0.398357 -0.998536 
0.17727 -0.259586 -0.971444 -0.00751726 -0.291374 -0.961667 0.00338133 -0.202314 -0.967663 
0.0727492 -0.191094 -0.887961 0.000932047 -0.185507 -0.844203 0.00525555 -0.179237 -0.788032 
-0.0295349 -0.217813 -0.77454 -0.020506 -0.195886 -0.662748 0.0664469 -0.176129 -0.584495 
0.190098 -0.180191 -0.564893 -0.0166739 -0.315829 -0.511868 -0.0499472 -0.156625 -0.549757 
0.0191592 -0.165968 -0.423966 -0.0885939 -0.164217 -0.431323 0.0315197 -0.158784 -0.418405 
0.076366 -0.155137 -0.411205 -0.0972053 -0.167425 -0.291235 -0.0714214 -0.178438 -0.112584 
-0.0765058 -0.242214 -0.126758 -0.116153 -0.146507 -0.0743616 -0.0598722 -0.124393 9.77819e-16 
0.0221214 -0.0722529 -8.59364e-14 -0.0137142 -0.123754 -6.92356e-15 -0.00673701 -0.226771 -3.85298e-14 
0.0407966 -0.144687 -2.27271e-14 0.0391899 -0.177566 4.8386e-14 0.116578 -0.107457 -6.92278e-15 
-0.00326197 -0.139485 9.7782e-16 -0.146195 -0.170031 -7.80359e-14 -0.0261645 -0.126083 -7.80351e-14 
0.0441874 -0.142081 -2.27263e-14 0.127005 -0.163009 3.25825e-14 0.076742 -0.0639368 -3.06269e-14 
-0.0360998 -0.18353 1.20418e-05 -0.0476116 -0.143061 -7.01345e-14 0.0242316 -0.124981 -1.48241e-14 
-0.011223 -0.0951381 2.80691e-11 -0.110541 -0.180523 -3.06269e-14 -0.0356301 -0.116554 -1.48249e-14 
0.0749032 -0.13184 7.20901e-14 -0.153785 -0.157784 -6.22324e-14 -0.0546401 -0.0989205 9.77824e-16 
0.0109714 -0.124992 -4.64296e-14 0.00174516 -0.123609 -6.22331e-14 0.0193322 -0.0994086 7.20901e-14 
0.0515669 -0.177398 -0.0264783 -0.0854144 -0.108063 6.41895e-14 -0.0182229 -0.0836891 -3.85298e-14 
0.00210227 -0.0996632 -6.22331e-14 0.00656257 -0.125271 1.67805e-14 0.0489767 -0.134619 -8.59372e-14 
0.00583158 -0.059853 -5.44339e-11 -0.0773522 -0.0809323 -2.27263e-14 -0.0515001 -0.0874587 5.62866e-14 
-0.0277227 -0.0800309 -3.85298e-14 0.0819189 -0.0980738 -7.80359e-14 -0.0219035 -0.0556811 9.77811e-16 
-0.0840832 -0.0749088 1.67805e-14 -0.0894644 -0.104562 4.04854e-14 -0.0668285 -0.0977167 7.99923e-14 
-0.014915 -0.0785863 -7.01345e-14 0.0143897 -0.149513 -3.06304e-14 0.0151744 -0.147841 8.87918e-15 
0.0528025 -0.0461127 -7.01337e-14 0.000354374 -0.0363374 -3.06276e-14 -0.00293216 -0.0481382 -1.40917e-09 
-0.0748068 -0.088697 8.87997e-15 0.0318518 -0.116091 -5.50117e-14 -0.0158023 -0.14711 -5.43325e-14 
-0.0161478 -0.0224064 3.21129e-08 0.0101449 -0.135741 1.5135e-06 -0.11334 -0.159321 -8.59365e-14 
-0.0124433 -0.0548651 -7.80351e-14 0.110911 -0.113573 7.99923e-14 -0.0677278 -0.0574202 7.99923e-14 
-0.0547184 -0.0795502 -0.000478525 -0.10337 -0.0905246 2.46853e-14 0.0307763 -0.125974 -0.000230282 
0.0139567 -0.0998245 -4.64296e-14 -0.0626183 -0.109975 0.000550582 -0.0439176 -0.0627627 0.000643134 
-0.0468679 -0.0961964 -4.64296e-14 0.0357841 -0.0749752 -3.49381e-05 0.00261602 -0.091882 -1.48249e-14 
0.020209 -0.0855148 -1.67526e-05 0.0341431 -0.122185 8.45857e-09 0.0599066 -0.113818 -2.27271e-14 
-0.0156926 -0.0565925 -1.35106e-08 -0.0650849 -0.107322 3.05558e-11 -0.0712291 -0.0570496 -0.0110897 
-0.0175179 -0.0624341 1.67798e-14 0.0117505 -0.104731 -0.000606395 -0.136834 -0.102787 2.46819e-14 
-0.120586 0.11436 -0.0334433 -0.232743 -0.0737716 -4.64296e-14 -0.0822982 -0.0573691 8.87918e-15 
0.0930333 -0.166259 -0.0340411 -0.043632 -0.13522 -1.48241e-14 0.0291823 -0.0999352 -4.64296e-14 
-0.0275773 -0.0905344 -0.0069271 -0.000494082 -0.0474479 0.00186439 0.0129551 -0.0827072 2.63028e-09 
0.00699268 -0.0939098 7.07565e-10 0.0872588 -0.120187 -2.27271e-14 0.0379671 -0.0976953 -4.64296e-14 
0.145157 -0.0391725 -2.27271e-14 -0.0223376 -0.0122109 0.00486223 -0.0991994 -0.0648265 3.679e-05 
-0.138437 -0.130476 4.44937e-05 -0.0182168 -0.0937129 0.000117676 0.038183 -0.0752083 0.000283987 
0.0240666 -0.0707722 2.416e-08 0.0346302 -0.0541874 -0.0011859 0.0382126 -0.0950807 1.60446e-06 
0.0163322 -0.0871708 -5.43325e-14 0.141373 -0.0507553 6.41888e-14 0.121053 -0.027244 1.67798e-14 
-0.110001 -0.0718188 -5.43318e-14 -0.0847318 -0.0858309 -0.00014107 -0.125668 -0.0718503 6.41888e-14 
-0.110189 -0.0308218 -7.38962e-10 -0.0199148 -0.0893046 0.000359565 0.0421994 -0.0715064 -0.000312782 
0.0350184 -0.0650996 -0.000942584 0.0575045 -0.118998 4.34318e-12 0.113456 -0.172383 -0.0592326 
0.0968225 -0.0631003 -5.43325e-14 -0.0253971 -0.000332265 9.76057e-14 -0.0104687 -0.0658919 -0.00148048 
-0.115951 0.0444749 0.0054099 -0.107854 -0.0541514 1.00115e-12 0.086443 -0.0784649 1.97303e-08 
0.0225878 -0.0436257 0.00795537 0.0548783 -0.110576 0.000269059 0.065673 -0.0984387 -1.48241e-14 
0.177268 -0.443539 0.00594613 0.0870639 -0.070415 -0.00325589 0.144014 -0.0581768 -7.8031e-10 
0.148523 -0.0755236 7.20909e-14 0.0635725 -0.0682041 -2.79181e-14 -0.11584 -0.00639306 -7.80359e-14 
0.0312471 -0.0206195 0.00141418 0.17603 -0.214379 -0.00174498 0.111979 -0.0610125 4.53792e-11 
-0.0054275 0.0227026 -2.02969e-09 -0.0223937 0.0622435 -0.0118355 -0.0717492 -0.0273378 -6.92277e-15 
-0.142174 0.200021 0.305084 -0.040843 -0.0996533 -4.04369e-07 0.00238876 -0.0387597 -0.0198812 
0.0899763 -0.0648297 -0.000105138 0.0794705 -0.0715286 -0.0137641 0.0275313 -0.0908901 0.119671 
0.0826052 -0.0626802 -5.43325e-14 -0.111967 0.0170613 9.78598e-16 -0.0836371 0.00960737 -3.8529e-14 
-0.0607802 0.0419909 0.0161671 -0.0539204 -0.0521631 -0.0141997 -0.00837841 -0.0364816 -0.0431075 
-0.0320826 -0.0418173 -0.00121149 0.0577838 -0.00846792 0.00387199 0.0741093 -0.14029 0.00409257 
0.20699 -0.208719 0.0070391 0.13499 -0.116393 3.70912e-07 0.0644329 -0.0325487 4.8386e-14 
0.0850622 -0.0335981 7.33496e-10 -0.0597831 0.0349804 1.38296e-07 -0.0589927 0.00125798 -2.51466e-05 
-0.0768381 -0.00208285 1.025e-12 -0.0735715 -0.00793278 -7.2623e-13 -0.0939533 0.0146861 2.90922e-08 
0.200695 -0.120253 0.14215 0.229811 -0.0739093 0.0261646 0.0471824 0.0171435 4.83852e-14 
-0.0900578 -0.00959852 -5.43325e-14 -0.111914 -0.00354925 7.20909e-14 -0.161398 -0.0770725 7.20901e-14 
-0.0690229 -0.0282886 5.99584e-05 -0.0421829 -0.0253448 -4.4932e-08 -0.0896446 0.0100487 0.0120796 
-0.0701161 -0.0062029 -0.000236716 -0.0263818 -0.0216144 -6.2662e-06 -0.0166789 -0.0208332 3.78662e-07 
-0.0279302 -0.0504487 0.000984898 0.0173475 0.0159225 1.67805e-14 -0.0126404 -0.0392674 -0.0019232 
0.0780968 -0.0473809 -6.22331e-14 0.00077309 -0.0302594 8.87996e-15 -0.0187491 -0.0600697 -6.22323e-14 
-0.126031 -0.0593363 -4.64288e-14 -0.157192 -0.0136455 2.46827e-14 -0.148054 -0.0183782 8.87997e-15 
-0.106823 0.0111122 2.46819e-14 -0.0413171 0.00402295 -0.00789515 -0.0965857 -0.00209188 -0.0500541 
-0.0625299 0.0268899 -1.38037e-07 -0.0331791 -0.0198831 0.00190959 -0.00676024 -0.0320309 -0.0234982 
-0.0425466 0.0210616 -0.00440953 0.0100929 -0.0520215 -7.89374e-05 0.0189533 -0.0372695 -0.00877683 
0.0024873 -0.115043 3.45753e-05 0.140208 -0.0390615 -0.000100982 0.149271 -0.0267726 1.67805e-14 
0.104207 -0.00480445 2.46819e-14 0.145883 0.00230105 4.04847e-14 0.141297 -0.0149811 -6.92355e-15 
-0.101558 0.000887718 -7.80359e-14 -0.13354 -0.0119066 -2.53542e-05 -0.0858794 -0.0559177 -0.0155195 
-0.0180308 -0.0282555 -0.00211647 -0.0183106 -0.0261298 0.000156963 0.0171909 0.00521582 -0.0311757 
-0.0325286 0.0322822 2.54261e-06 0.0762026 -0.0402711 -0.0428319 0.0670717 0.00246555 -0.03304 
0.0145174 0.0306614 -2.00107e-07 0.161584 -0.161145 0.144511 0.0768795 0.0166708 0.00179649 
0.0855201 -0.00171472 -3.06277e-14 0.136529 0.0295299 -5.43325e-14 -0.0309362 -0.0172491 -3.12847e-09 
-0.150963 -0.033468 -6.22331e-14 -0.0529713 0.015763 9.10436e-14 0.0237333 -0.0406992 0.00558422 
-0.0286242 -0.0319725 -0.0201938 -0.0243826 0.0180601 8.135e-07 0.0581573 2.69995e-05 0.00038389 
0.0649266 0.0175122 0.00048004 0.0879359 0.0527641 -0.0706506 0.110673 -0.0167037 7.97466e-05 
0.105724 0.00194293 0.000495961 0.0982849 -0.0100751 -1.48241e-14 0.106595 -0.0255988 9.77821e-16 
-0.0343376 0.0258235 3.55378e-05 -0.0300857 0.000119827 0.00760791 -0.0773208 -0.020173 1.67805e-14 
0.0523108 -0.0254228 -0.00662804 -0.0912767 0.0442128 9.05094e-06 -0.0251439 -0.0530582 0.00143827 