# vtk DataFile Version 4.0
Generated by LIGGGHTS
ASCII
DATASET POLYDATA
POINTS 848 float
-0.083337 -0.195639 -0.35629 -0.0213081 -0.200548 -0.351662 -0.108167 -0.19294 -0.328659 
-0.0256851 -0.150484 -0.257404 -0.0727082 -0.18521 -0.250647 0.0810282 -0.139156 -0.233241 
-0.0667321 -0.162222 -0.222452 0.0700294 -0.153312 -0.202857 0.0274411 -0.153914 -0.17171 
0.0779498 -0.145381 -0.171762 -0.00807131 -0.114306 -0.141564 0.0372745 -0.147764 -0.110242 
0.0203915 -0.147341 -0.10948 0.0667084 -0.156751 -0.0954241 -0.032797 -0.138406 -0.0971596 
0.0203558 -0.137922 -0.0882388 0.0794165 -0.131848 -0.0705482 0.0405708 -0.113219 -0.00903457 
-0.0567378 -0.11095 -0.00449706 -0.0150317 -0.114192 0.00521662 0.00347018 -0.109304 0.00746502 
0.0742555 -0.108548 0.00614878 -0.0254433 -0.106617 0.00727105 0.0443083 -0.104681 0.00855063 
-0.0958301 -0.103718 0.00952579 -0.00924635 -0.102827 0.0116738 0.0117516 -0.102568 0.0104915 
0.0429758 -0.0988695 0.0114983 0.0724407 -0.0984824 0.0114983 -0.0955746 -0.0962221 0.011495 
-0.0537704 -0.0963859 0.0114983 0.0497163 -0.0962707 0.0114983 0.0959402 -0.0957098 0.0115576 
-0.0959225 -0.0904778 0.0115829 -0.0755741 -0.0914504 0.0114983 -0.0311439 -0.0900079 0.0114983 
-0.011943 -0.0902695 0.0114983 -0.0215188 -0.0867771 0.0114983 -0.00145518 -0.0871232 0.0114983 
0.0284671 -0.0875505 0.0114983 0.0331177 -0.0854788 0.0114983 0.0687356 -0.084686 0.0114983 
-0.0879535 -0.0793863 0.0115034 0.0109065 -0.0825332 0.0114983 0.017604 -0.0820105 0.0114983 
0.028267 -0.0813595 0.0114983 0.0631568 -0.0799892 0.0114983 0.0927708 -0.0801578 0.0114983 
0.095296 -0.0819997 0.0114983 -0.065316 -0.0765011 0.0114983 0.0313899 -0.0778962 0.0114983 
-0.0279142 -0.0729269 0.0114983 -0.0222714 -0.0741704 0.0114983 -0.0182171 -0.0744574 0.0114983 
-0.0147552 -0.0755106 0.0114983 0.0569763 -0.0724944 0.0114983 -0.0649901 -0.0711403 0.0114983 
-0.0664883 -0.0670708 0.0114983 -0.0216294 -0.0661361 0.0114983 -0.00131283 -0.0675708 0.0114983 
0.00421146 -0.0654199 0.0114983 0.035075 -0.0674626 0.0114983 -0.094632 -0.0632076 0.0114983 
-0.0482248 -0.0631263 0.0114983 -0.0226764 -0.0628021 0.0114983 -0.0187343 -0.0647371 0.0114983 
0.00725496 -0.0635681 0.0114983 0.0178424 -0.0630378 0.0114983 0.0673945 -0.062643 0.0114983 
-0.0914432 -0.0589232 0.0114983 -0.0823277 -0.0615044 0.0114983 -0.053795 -0.0611033 0.0114983 
-0.0345571 -0.0605972 0.0114983 -0.0209393 -0.0597452 0.0114983 0.0255878 -0.0593225 0.0114983 
-0.0959987 -0.0567003 0.0114984 -0.0929819 -0.0562863 0.0114983 -0.0549942 -0.0573169 0.0114983 
-0.0426276 -0.0556213 0.0114983 -0.0384719 -0.0572625 0.0114983 -0.0279337 -0.055702 0.0114983 
-0.0911466 -0.0537959 0.0114983 0.00605475 -0.0525747 0.0114983 0.0101969 -0.0540736 0.0114983 
0.0133896 -0.0544323 0.0114983 0.0169861 -0.051819 0.0114983 0.0208462 -0.0527603 0.0114983 
-0.0838574 -0.0480785 0.0114983 -0.0499184 -0.049999 0.0114983 -0.0419332 -0.0486823 0.0114983 
-0.0276718 -0.0483657 0.0114983 0.0436664 -0.0493761 0.0114983 -0.0312254 -0.046578 0.0114983 
-0.0226616 -0.0465875 0.0114983 -0.00485968 -0.0442981 0.0114983 0.00375471 -0.044629 0.011498 
0.0113867 -0.0463269 0.0114983 0.0910307 -0.0467419 0.0114983 -0.0343659 -0.0434387 0.0116997 
-0.025728 -0.0434586 0.0114983 -0.0167265 -0.0426605 0.0114983 0.00715685 -0.0428336 0.0114981 
0.0237905 -0.0437312 0.0114983 0.0376892 -0.0424426 0.0114983 -0.0367812 -0.0384627 0.0114983 
-0.0327167 -0.0376917 0.0115437 -0.0250703 -0.0393023 0.0114983 -0.00716243 -0.0408122 0.0114983 
0.0183042 -0.0394187 0.0114983 0.0277263 -0.0378187 0.0114983 -0.0676709 -0.0352402 0.0114983 
0.0135115 -0.0339905 0.0114983 0.0166343 -0.0355229 0.0115026 0.0654834 -0.0361767 0.0114983 
0.0867535 -0.0344261 0.0114983 -0.0078599 -0.0328701 0.0114991 -0.00465256 -0.0309961 0.0115343 
0.000484073 -0.032236 0.0114983 0.00984518 -0.0317252 0.0114983 0.0271661 -0.031169 0.0114983 
0.036253 -0.0336685 0.0114983 0.0625098 -0.0328328 0.0114983 0.073316 -0.0325314 0.0114983 
-0.087807 -0.026667 0.0114983 -0.0744112 -0.0268655 0.0114983 -0.0666388 -0.0276316 0.0114983 
-0.0328577 -0.0283764 0.0114983 -0.0260615 -0.0279147 0.0114983 -0.0191465 -0.0296443 0.0115172 
-0.00801326 -0.0285463 0.0114983 -0.00431289 -0.0270071 0.0114983 0.00345846 -0.0293078 0.0114983 
0.00744829 -0.0289421 0.0114977 0.0126405 -0.0298438 0.0114987 0.0426982 -0.0274056 0.0114983 
-0.0568573 -0.023802 0.0114983 -0.0337168 -0.0249822 0.0114983 -0.00728264 -0.0253126 0.0115251 
0.00310572 -0.0248686 0.0114984 0.0270887 -0.0264818 0.0114983 0.0275534 -0.0234607 0.0114983 
0.0313859 -0.025514 0.0114983 0.0885658 -0.0243479 0.0114983 -0.0908151 -0.0200746 0.0114983 
-0.0485862 -0.0201575 0.0114983 -0.0225646 -0.020393 0.0114983 -0.00559451 -0.0226011 0.0115501 
0.000563398 -0.0222093 0.0115008 0.00552073 -0.0202588 0.0114974 0.00896378 -0.0215475 0.011496 
0.0205637 -0.0208241 0.0115782 0.0340414 -0.0228493 0.0114983 0.0341922 -0.019825 0.0114963 
0.038406 -0.0226214 0.0114983 0.0739212 -0.0198191 0.0114983 -0.0561897 -0.0182776 0.0114983 
-0.0410872 -0.017038 0.0114983 -0.0252568 -0.0175304 0.0114983 -0.00605428 -0.0174858 0.0114983 
-0.00156403 -0.0162854 0.0114979 0.00116584 -0.0175602 0.0114983 0.00851107 -0.0176929 0.0114983 
0.0121686 -0.0181476 0.0114983 0.0319386 -0.016518 0.0114983 0.0415217 -0.0168447 0.0114983 
-0.0820827 -0.0123576 0.0114983 -0.0783711 -0.0125 0.0114983 -0.036409 -0.0128276 0.0114983 
-0.0145075 -0.0124799 0.0116134 0.00361903 -0.0157632 0.0114983 0.00617985 -0.0141974 0.0114976 
0.0105295 -0.01482 0.0115402 0.0232057 -0.0135663 0.0116654 0.057328 -0.0141091 0.0114983 
-0.0469711 -0.0104338 0.0114983 -0.044263 -0.00914259 0.011531 -0.0226135 -0.00963788 0.0114983 
-0.0182825 -0.00978886 0.0114958 -0.0152636 -0.00914674 0.0114972 -0.0121805 -0.010295 0.0114982 
-0.00908383 -0.0104963 0.0117713 0.0205653 -0.0121429 0.0114819 -0.0957763 -0.00556728 0.0114983 
-0.0600309 -0.00825338 0.0114983 -0.049496 -0.00659772 0.0114983 -0.0450373 -0.00621839 0.0114983 
-0.0387502 -0.00809049 0.0114983 -0.0348367 -0.00791879 0.0114983 -0.0233794 -0.00662532 0.0114983 
-0.0160253 -0.00592098 0.0114983 -0.0129351 -0.00578297 0.0114983 -0.0103254 -0.007752 0.0114995 
-0.00456957 -0.00551883 0.0114996 -0.000883076 -0.00842671 0.0114909 0.00563766 -0.00817904 0.0114975 
0.0113459 -0.0057349 0.0114935 0.0138693 -0.00735382 0.0116563 0.0246103 -0.0085027 0.0115708 
0.0574811 -0.00676746 0.0114983 0.0614729 -0.00581023 0.0114978 0.0733147 -0.0078411 0.0114983 
-0.0910151 -0.0044588 0.0114983 -0.0692631 -0.00369505 0.0114983 -0.0586219 -0.00471365 0.0114984 
-0.0166165 -0.00292549 0.0116099 -0.00817978 -0.00334895 0.0114983 0.00205905 -0.00362609 0.011548 
0.00838475 -0.00529903 0.0115062 0.0285479 -0.0028963 0.0114983 0.041733 -0.00450527 0.0114983 
0.0488021 -0.00414874 0.0114983 0.0615357 -0.00281304 0.0114981 0.0660155 -0.00481769 0.0114983 
0.0803848 -0.00446239 0.0114983 -0.0468148 -0.00060098 0.0114984 -0.0439022 -0.0018092 0.0114983 
-0.019891 0.000639921 0.0114983 -0.0110567 0.00101931 0.0115321 -0.00201949 0.00124128 0.0114983 
0.00546878 -0.00166323 0.0114983 0.00624189 0.001536 0.0114983 0.0155743 -0.000456127 0.0115437 
0.0330934 0.000800357 0.0114983 0.0392687 0.000800767 0.0114981 0.0628414 -0.000108999 0.0114984 
0.0655901 0.00149719 0.0114983 -0.0902643 0.00303607 0.0114983 -0.0552506 0.00519588 0.0114983 
-0.0533983 0.00281864 0.0114983 -0.0431736 0.00269967 0.0114983 -0.0405718 0.00462926 0.0114983 
-0.0363959 0.00305117 0.0114983 -0.0100042 0.00406605 0.0114983 0.00522187 0.00435954 0.0118751 
0.0160681 0.0031235 0.0114997 0.0262417 0.0030521 0.0115082 0.033468 0.00377948 0.0116111 
0.0364665 0.00382426 0.0115176 0.0394726 0.00400561 0.0115157 -0.05804 0.00640717 0.0114983 
-0.0534906 0.00770518 0.0114983 -0.0447937 0.00553691 0.0114983 -0.0377461 0.00650714 0.0114983 
-0.028261 0.00615627 0.0114983 -0.0131921 0.00605127 0.0114941 -0.0121752 0.00891203 0.011572 
-0.00864586 0.00716496 0.0114983 -0.0033392 0.00763892 0.0114994 -0.000222604 0.00830176 0.0114984 
0.00813206 0.00504737 0.0114983 0.0148691 0.00857784 0.0114961 0.018642 0.00837806 0.0114983 
0.0303199 0.00670274 0.0114983 0.0351454 0.00663749 0.0114996 0.0377449 0.00818412 0.0114983 
0.0620994 0.00763016 0.0114983 0.0705974 0.0075831 0.0114983 0.0899668 0.00710885 0.0114983 
-0.0957734 0.00999402 0.0114983 -0.0737492 0.00889711 0.0114983 -0.0392949 0.0113825 0.0114983 
-0.0156154 0.0089597 0.0115134 -0.0149742 0.0118898 0.0114983 -0.00162129 0.0113447 0.0114983 
0.00633172 0.0118619 0.0114983 0.00925561 0.00881518 0.0114961 0.0165969 0.011206 0.0114984 
0.0293239 0.0114521 0.0114984 0.0390637 0.01105 0.0114983 0.0671687 0.0104965 0.0114983 
-0.0933719 0.014307 0.0114983 -0.0854955 0.0154194 0.0114983 -0.0502966 0.0148724 0.0114983 
-0.0460265 0.012905 0.0114983 -0.0428003 0.0143701 0.0114983 -0.0374877 0.013795 0.0114983 
-0.0164867 0.0151627 0.0114983 -0.0131006 0.0147588 0.0114984 -0.0040263 0.0146135 0.0114983 
-0.00101215 0.0148272 0.0114983 0.00223026 0.0147202 0.0115082 0.00584161 0.0151632 0.011738 
0.00878686 0.0158302 0.011528 0.00919605 0.012793 0.0114981 0.0124169 0.0143175 0.0114993 
0.0155899 0.0142528 0.011596 0.0185114 0.0136738 0.0118091 0.0634582 0.0125065 0.0114983 
0.06964 0.0143038 0.0114983 -0.0423415 0.0186743 0.0114983 -0.0324126 0.0188144 0.0114985 
-0.0296886 0.0175666 0.0117254 -0.0073771 0.0161549 0.0114987 -0.00177981 0.0182924 0.0114979 
0.00371773 0.0173618 0.0114983 0.00673082 0.0180162 0.0114973 0.0187984 0.0180665 0.0123896 
0.0688319 0.017898 0.0114983 0.0743327 0.0187122 0.0114983 -0.0924871 0.0222894 0.0114983 
-0.0257997 0.0208082 0.0114841 -0.0228474 0.0201446 0.011575 -0.0213193 0.022936 0.0114983 
-0.00125527 0.0212497 0.0114983 0.00517153 0.0216145 0.0115077 0.0268964 0.0204256 0.0117091 
0.0301817 0.0197991 0.0114981 0.0375364 0.0208736 0.0114983 0.0479406 0.0217489 0.0114983 
-0.026729 0.0262943 0.0114983 -0.0225847 0.0256946 0.0114983 -0.0187993 0.0256088 0.0115037 
[...]
POINT_DATA 848
FIELD FieldData 7
id 1 848 int
82 160 282 30 89 12 6 105 206 
52 356 59 77 397 243 363 208 2 
4 386 416 189 324 265 9 154 112 
10 200 137 229 393 526 343 252 73 
267 83 406 173 76 50 283 514 108 
328 319 19 125 242 110 18 8 498 
307 97 290 591 90 192 333 75 71 
281 85 161 458 418 11 179 353 409 
268 523 251 47 45 202 378 32 152 
107 588 475 101 487 433 358 425 489 
240 63 218 371 546 263 438 23 314 
308 352 214 559 525 598 665 502 540 
615 109 205 339 566 448 249 460 120 
521 496 139 550 292 164 436 211 197 
476 719 600 172 127 612 123 587 482 
368 320 744 571 626 524 603 507 495 
344 713 578 677 443 599 743 610 500 
630 305 84 510 572 734 185 72 294 
340 681 366 64 153 527 303 459 444 
278 643 585 561 36 25 347 499 126 
146 753 217 227 412 651 575 315 250 
617 150 653 395 715 373 288 279 705 
346 538 295 114 174 501 473 639 533 
456 574 562 355 302 384 201 228 474 
745 592 121 244 447 652 163 601 420 
411 74 253 239 96 162 226 564 275 
731 759 690 573 522 334 289 404 488 
624 472 627 616 637 293 484 512 742 
563 579 213 369 342 257 210 204 407 
332 552 468 341 532 360 597 545 548 
61 291 553 432 264 316 345 266 584 
359 497 296 539 707 485 537 717 136 
165 577 604 419 576 640 431 565 702 
280 329 86 434 754 668 230 732 424 
590 198 461 613 370 231 508 605 421 
520 589 309 33 140 547 708 519 676 
655 133 277 178 692 513 327 331 483 
649 641 408 171 276 534 102 457 629 
471 379 445 435 650 382 330 422 357 
255 618 486 100 270 631 450 22 321 
437 186 354 38 151 238 463 215 87 
462 49 385 381 405 99 551 70 446 
383 470 423 21 269 317 372 148 399 
449 122 304 177 212 60 241 159 51 
237 256 509 398 20 394 224 254 134 
223 166 396 176 88 98 65 39 62 
203 135 225 46 111 26 175 147 216 
188 187 149 124 34 306 13 7 37 
35 367 301 410 191 57 138 58 113 
24 95 184 262 119 258 222 68 261 
375 168 260 132 529 325 541 167 92 
144 300 348 481 313 142 285 336 389 
42 477 156 40 16 365 528 464 494 
693 594 414 413 638 581 568 635 518 
15 506 467 634 157 593 695 726 452 
623 439 694 595 219 583 155 718 543 
737 710 335 248 67 760 364 337 129 
402 284 29 403 323 660 14 666 755 
611 669 663 721 782 679 602 469 793 
504 274 442 193 644 698 141 656 784 
785 560 417 247 3 181 131 465 683 
391 756 455 733 535 709 235 415 361 
91 429 531 772 712 704 246 380 170 
767 798 686 633 207 79 557 728 657 
701 671 749 661 376 286 362 696 684 
158 765 648 619 689 783 115 517 614 
94 441 757 582 326 390 727 492 722 
687 351 608 311 622 427 730 672 758 
740 659 480 350 245 183 625 746 511 
180 700 221 271 195 199 81 647 27 
606 586 544 451 505 232 41 145 636 
642 662 685 781 766 621 491 117 567 
751 678 779 143 570 190 558 516 786 
675 5 298 440 66 236 259 549 116 
454 761 628 392 106 490 493 55 778 
607 680 720 797 580 17 542 555 674 
620 430 536 338 530 322 377 658 515 
318 769 673 287 426 388 428 400 272 
53 273 220 209 169 44 401 569 54 
556 103 349 554 310 196 478 128 69 
312 80 297 43 182 93 479 503 299 
194 234 130 374 104 1 56 78 28 
118 233 453 31 750 387 787 724 795 
723 632 706 646 667 739 670 736 789 
768 776 770 609 762 596 703 788 711 
714 775 777 791 741 466 763 752 796 
682 654 716 699 780 645 792 747 688 
725 729 800 809 773 808 794 764 771 
691 774 790 664 801 810 748 697 807 
803 805 811 738 804 818 802 799 806 
735 812 821 816 822 815 817 814 820 
813 829 823 819 828 834 836 825 824 
833 831 832 830 835 827 826 847 843 
844 840 842 839 837 846 841 849 845 
838 848 
type 1 848 int
1 1 1 1 1 1 1 1 1 
1 1 1 1 1 1 1 1 1 
1 1 1 1 1 1 1 1 1 
1 1 1 1 1 1 1 1 1 
1 1 1 1 1 1 1 1 1 
1 1 1 1 1 1 1 1 1 
1 1 1 1 1 1 1 1 1 
1 1 1 1 1 1 1 1 1 
1 1 1 1 1 1 1 1 1 
1 1 1 1 1 1 1 1 1 
1 1 1 1 1 1 1 1 1 
1 1 1 1 1 1 1 1 1 
1 1 1 1 1 1 1 1 1 
1 1 1 1 1 1 1 1 1 
1 1 1 1 1 1 1 1 1 
1 1 1 1 1 1 1 1 1 
1 1 1 1 1 1 1 1 1 
1 1 1 1 1 1 1 1 1 
1 1 1 1 1 1 1 1 1 
1 1 1 1 1 1 1 1 1 
1 1 1 1 1 1 1 1 1 
1 1 1 1 1 1 1 1 1 
1 1 1 1 1 1 1 1 1 
1 1 1 1 1 1 1 1 1 
1 1 1 1 1 1 1 1 1 
1 1 1 1 1 1 1 1 1 
1 1 1 1 1 1 1 1 1 
1 1 1 1 1 1 1 1 1 
1 1 1 1 1 1 1 1 1 
1 1 1 1 1 1 1 1 1 
1 1 1 1 1 1 1 1 1 
1 1 1 1 1 1 1 1 1 
1 1 1 1 1 1 1 1 1 
1 1 1 1 1 1 1 1 1 
1 1 1 1 1 1 1 1 1 
1 1 1 1 1 1 1 1 1 
1 1 1 1 1 1 1 1 1 
1 1 1 1 1 1 1 1 1 
1 1 1 1 1 1 1 1 1 
1 1 1 1 1 1 1 1 1 
1 1 1 1 1 1 1 1 1 
1 1 1 1 1 1 1 1 1 
1 1 1 1 1 1 1 1 1 
1 1 1 1 1 1 1 1 1 
1 1 1 1 1 1 1 1 1 
1 1 1 1 1 1 1 1 1 
1 1 1 1 1 1 1 1 1 
1 1 1 1 1 1 1 1 1 
1 1 1 1 1 1 1 1 1 
1 1 1 1 1 1 1 1 1 
1 1 1 1 1 1 1 1 1 
1 1 1 1 1 1 1 1 1 
1 1 1 1 1 1 1 1 1 
1 1 1 1 1 1 1 1 1 
1 1 1 1 1 1 1 1 1 
1 1 1 1 1 1 1 1 1 
1 1 1 1 1 1 1 1 1 
1 1 1 1 1 1 1 1 1 
1 1 1 1 1 1 1 1 1 
1 1 1 1 1 1 1 1 1 
1 1 1 1 1 1 1 1 1 
1 1 1 1 1 1 1 1 1 
1 1 1 1 1 1 1 1 1 
1 1 1 1 1 1 1 1 1 
1 1 1 1 1 1 1 1 1 
1 1 1 1 1 1 1 1 1 
1 1 1 1 1 1 1 1 1 
1 1 1 1 1 1 1 1 1 
1 1 1 1 1 1 1 1 1 
1 1 1 1 1 1 1 1 1 
1 1 1 1 1 1 1 1 1 
1 1 1 1 1 1 1 1 1 
1 1 1 1 1 1 1 1 1 
1 1 1 1 1 1 1 1 1 
1 1 1 1 1 1 1 1 1 
1 1 1 1 1 1 1 1 1 
1 1 1 1 1 1 1 1 1 
1 1 1 1 1 1 1 1 1 
1 1 1 1 1 1 1 1 1 
1 1 1 1 1 1 1 1 1 
1 1 1 1 1 1 1 1 1 
1 1 1 1 1 1 1 1 1 
1 1 1 1 1 1 1 1 1 
1 1 1 1 1 1 1 1 1 
1 1 1 1 1 1 1 1 1 
1 1 1 1 1 1 1 1 1 
1 1 1 1 1 1 1 1 1 
1 1 1 1 1 1 1 1 1 
1 1 1 1 1 1 1 1 1 
1 1 1 1 1 1 1 1 1 
1 1 1 1 1 1 1 1 1 
1 1 1 1 1 1 1 1 1 
1 1 1 1 1 1 1 1 1 
1 1 1 1 1 1 1 1 1 
1 1 
i 3 848 int
0 0 0 0 0 0 0 0 0 
0 0 0 0 0 0 0 0 0 
0 0 0 0 0 0 0 0 0 
0 0 0 0 0 0 0 0 0 
0 0 0 0 0 0 0 0 0 
0 0 0 0 0 0 0 0 0 
0 0 0 0 0 0 0 0 0 
0 0 0 0 0 0 0 0 0 
0 0 0 0 0 0 0 0 0 
0 0 0 0 0 0 0 0 0 
0 0 0 0 0 0 0 0 0 
0 0 0 0 0 0 0 0 0 
0 0 0 0 0 0 0 0 0 
0 0 0 0 0 0 0 0 0 
0 0 0 0 0 0 0 0 0 
0 0 0 0 0 0 0 0 0 
0 0 0 0 0 0 0 0 0 
0 0 0 0 0 0 0 0 0 
0 0 0 0 0 0 0 0 0 
0 0 0 0 0 0 0 0 0 
0 0 0 0 0 0 0 0 0 
0 0 0 0 0 0 0 0 0 
0 0 0 0 0 0 0 0 0 
0 0 0 0 0 0 0 0 0 
0 0 0 0 0 0 0 0 0 
0 0 0 0 0 0 0 0 0 
0 0 0 0 0 0 0 0 0 
0 0 0 0 0 0 0 0 0 
0 0 0 0 0 0 0 0 0 
0 0 0 0 0 0 0 0 0 
0 0 0 0 0 0 0 0 0 
0 0 0 0 0 0 0 0 0 
0 0 0 0 0 0 0 0 0 
0 0 0 0 0 0 0 0 0 
0 0 0 0 0 0 0 0 0 
0 0 0 0 0 0 0 0 0 
0 0 0 0 0 0 0 0 0 
0 0 0 0 0 0 0 0 0 
0 0 0 0 0 0 0 0 0 
0 0 0 0 0 0 0 0 0 
0 0 0 0 0 0 0 0 0 
0 0 0 0 0 0 0 0 0 
0 0 0 0 0 0 0 0 0 
0 0 0 0 0 0 0 0 0 
0 0 0 0 0 0 0 0 0 
0 0 0 0 0 0 0 0 0 
0 0 0 0 0 0 0 0 0 
0 0 0 0 0 0 0 0 0 
0 0 0 0 0 0 0 0 0 
0 0 0 0 0 0 0 0 0 
0 0 0 0 0 0 0 0 0 
0 0 0 0 0 0 0 0 0 
0 0 0 0 0 0 0 0 0 
0 0 0 0 0 0 0 0 0 
0 0 0 0 0 0 0 0 0 
0 0 0 0 0 0 0 0 0 
0 0 0 0 0 0 0 0 0 
0 0 0 0 0 0 0 0 0 
0 0 0 0 0 0 0 0 0 
0 0 0 0 0 0 0 0 0 
0 0 0 0 0 0 0 0 0 
0 0 0 0 0 0 0 0 0 
0 0 0 0 0 0 0 0 0 
0 0 0 0 0 0 0 0 0 
0 0 0 0 0 0 0 0 0 
0 0 0 0 0 0 0 0 0 
0 0 0 0 0 0 0 0 0 
0 0 0 0 0 0 0 0 0 
0 0 0 0 0 0 0 0 0 
0 0 0 0 0 0 0 0 0 
0 0 0 0 0 0 0 0 0 
0 0 0 0 0 0 0 0 0 
0 0 0 0 0 0 0 0 0 
0 0 0 0 0 0 0 0 0 
0 0 0 0 0 0 0 0 0 
0 0 0 0 0 0 0 0 0 
0 0 0 0 0 0 0 0 0 
0 0 0 0 0 0 0 0 0 
0 0 0 0 0 0 0 0 0 
0 0 0 0 0 0 0 0 0 
0 0 0 0 0 0 0 0 0 
0 0 0 0 0 0 0 0 0 
0 0 0 0 0 0 0 0 0 
0 0 0 0 0 0 0 0 0 
0 0 0 0 0 0 0 0 0 
0 0 0 0 0 0 0 0 0 
0 0 0 0 0 0 0 0 0 
0 0 0 0 0 0 0 0 0 
0 0 0 0 0 0 0 0 0 
0 0 0 0 0 0 0 0 0 
0 0 0 0 0 0 0 0 0 
0 0 0 0 0 0 0 0 0 
0 0 0 0 0 0 0 0 0 
0 0 0 0 0 0 0 0 0 
0 0 0 0 0 0 0 0 0 
0 0 0 0 0 0 0 0 0 
0 0 0 0 0 0 0 0 0 
0 0 0 0 0 0 0 0 0 
0 0 0 0 0 0 0 0 0 
0 0 0 0 0 0 0 0 0 
0 0 0 0 0 0 0 0 0 
0 0 0 0 0 0 0 0 0 
0 0 0 0 0 0 0 0 0 
0 0 0 0 0 0 0 0 0 
0 0 0 0 0 0 0 0 0 
0 0 0 0 0 0 0 0 0 
0 0 0 0 0 0 0 0 0 
0 0 0 0 0 0 0 0 0 
0 0 0 0 0 0 0 0 0 
0 0 0 0 0 0 0 0 0 
0 0 0 0 0 0 0 0 0 
0 0 0 0 0 0 0 0 0 
0 0 0 0 0 0 0 0 0 
0 0 0 0 0 0 0 0 0 
0 0 0 0 0 0 0 0 0 
0 0 0 0 0 0 0 0 0 
0 0 0 0 0 0 0 0 0 
0 0 0 0 0 0 0 0 0 
0 0 0 0 0 0 0 0 0 
0 0 0 0 0 0 0 0 0 
0 0 0 0 0 0 0 0 0 
0 0 0 0 0 0 0 0 0 
0 0 0 0 0 0 0 0 0 
0 0 0 0 0 0 0 0 0 
0 0 0 0 0 0 0 0 0 
0 0 0 0 0 0 0 0 0 
0 0 0 0 0 0 0 0 0 
0 0 0 0 0 0 0 0 0 
0 0 0 0 0 0 0 0 0 
0 0 0 0 0 0 0 0 0 
0 0 0 0 0 0 0 0 0 
0 0 0 0 0 0 0 0 0 
0 0 0 0 0 0 0 0 0 
0 0 0 0 0 0 0 0 0 
0 0 0 0 0 0 0 0 0 
0 0 0 0 0 0 0 0 0 
0 0 0 0 0 0 0 0 0 
0 0 0 0 0 0 0 0 0 
0 0 0 0 0 0 0 0 0 
0 0 0 0 0 0 0 0 0 
0 0 0 0 0 0 0 0 0 
0 0 0 0 0 0 0 0 0 
0 0 0 0 0 0 0 0 0 
0 0 0 0 0 0 0 0 0 
0 0 0 0 0 0 0 0 0 
0 0 0 0 0 0 0 0 0 
0 0 0 0 0 0 0 0 0 
0 0 0 0 0 0 0 0 0 
0 0 0 0 0 0 0 0 0 
0 0 0 0 0 0 0 0 0 
0 0 0 0 0 0 0 0 0 
0 0 0 0 0 0 0 0 0 
0 0 0 0 0 0 0 0 0 
0 0 0 0 0 0 0 0 0 
0 0 0 0 0 0 0 0 0 
0 0 0 0 0 0 0 0 0 
0 0 0 0 0 0 0 0 0 
0 0 0 0 0 0 0 0 0 
0 0 0 0 0 0 0 0 0 
0 0 0 0 0 0 0 0 0 
0 0 0 0 0 0 0 0 0 
0 0 0 0 0 0 0 0 0 
0 0 0 0 0 0 0 0 0 
0 0 0 0 0 0 0 0 0 
0 0 0 0 0 0 0 0 0 
0 0 0 0 0 0 0 0 0 
0 0 0 0 0 0 0 0 0 
0 0 0 0 0 0 0 0 0 
0 0 0 0 0 0 0 0 0 
0 0 0 0 0 0 0 0 0 
0 0 0 0 0 0 0 0 0 
0 0 0 0 0 0 0 0 0 
0 0 0 0 0 0 0 0 0 
0 0 0 0 0 0 0 0 0 
0 0 0 0 0 0 0 0 0 
0 0 0 0 0 0 0 0 0 
0 0 0 0 0 0 0 0 0 
0 0 0 0 0 0 0 0 0 
0 0 0 0 0 0 0 0 0 
0 0 0 0 0 0 0 0 0 
0 0 0 0 0 0 0 0 0 
0 0 0 0 0 0 0 0 0 
0 0 0 0 0 0 0 0 0 
0 0 0 0 0 0 0 0 0 
0 0 0 0 0 0 0 0 0 
0 0 0 0 0 0 0 0 0 
0 0 0 0 0 0 0 0 0 
0 0 0 0 0 0 0 0 0 
0 0 0 0 0 0 0 0 0 
0 0 0 0 0 0 0 0 0 
0 0 0 0 0 0 0 0 0 
0 0 0 0 0 0 0 0 0 
0 0 0 0 0 0 0 0 0 
0 0 0 0 0 0 0 0 0 
0 0 0 0 0 0 0 0 0 
0 0 0 0 0 0 0 0 0 
0 0 0 0 0 0 0 0 0 
0 0 0 0 0 0 0 0 0 
0 0 0 0 0 0 0 0 0 
0 0 0 0 0 0 0 0 0 
0 0 0 0 0 0 0 0 0 
0 0 0 0 0 0 0 0 0 
0 0 0 0 0 0 0 0 0 
0 0 0 0 0 0 0 0 0 
0 0 0 0 0 0 0 0 0 
0 0 0 0 0 0 0 0 0 
0 0 0 0 0 0 0 0 0 
0 0 0 0 0 0 0 0 0 
0 0 0 0 0 0 0 0 0 
0 0 0 0 0 0 0 0 0 
0 0 0 0 0 0 0 0 0 
0 0 0 0 0 0 0 0 0 
0 0 0 0 0 0 0 0 0 
0 0 0 0 0 0 0 0 0 
0 0 0 0 0 0 0 0 0 
0 0 0 0 0 0 0 0 0 
0 0 0 0 0 0 0 0 0 
0 0 0 0 0 0 0 0 0 
0 0 0 0 0 0 0 0 0 
0 0 0 0 0 0 0 0 0 
0 0 0 0 0 0 0 0 0 
0 0 0 0 0 0 0 0 0 
0 0 0 0 0 0 0 0 0 
0 0 0 0 0 0 0 0 0 
0 0 0 0 0 0 0 0 0 
0 0 0 0 0 0 0 0 0 
0 0 0 0 0 0 0 0 0 
0 0 0 0 0 0 0 0 0 
0 0 0 0 0 0 0 0 0 
0 0 0 0 0 0 0 0 0 
0 0 0 0 0 0 0 0 0 
0 0 0 0 0 0 0 0 0 
0 0 0 0 0 0 0 0 0 
0 0 0 0 0 0 0 0 0 
0 0 0 0 0 0 0 0 0 
0 0 0 0 0 0 0 0 0 
0 0 0 0 0 0 0 0 0 
0 0 0 0 0 0 0 0 0 
0 0 0 0 0 0 0 0 0 
0 0 0 0 0 0 0 0 0 
0 0 0 0 0 0 0 0 0 
0 0 0 0 0 0 0 0 0 
0 0 0 0 0 0 0 0 0 
0 0 0 0 0 0 0 0 0 
0 0 0 0 0 0 0 0 0 
0 0 0 0 0 0 0 0 0 
0 0 0 0 0 0 0 0 0 
0 0 0 0 0 0 0 0 0 
0 0 0 0 0 0 0 0 0 
0 0 0 0 0 0 0 0 0 
0 0 0 0 0 0 0 0 0 
0 0 0 0 0 0 0 0 0 
0 0 0 0 0 0 0 0 0 
0 0 0 0 0 0 0 0 0 
0 0 0 0 0 0 0 0 0 
0 0 0 0 0 0 0 0 0 
0 0 0 0 0 0 0 0 0 
0 0 0 0 0 0 0 0 0 
0 0 0 0 0 0 0 0 0 
0 0 0 0 0 0 0 0 0 
0 0 0 0 0 0 0 0 0 
0 0 0 0 0 0 0 0 0 
0 0 0 0 0 0 0 0 0 
0 0 0 0 0 0 0 0 0 
0 0 0 0 0 0 0 0 0 
0 0 0 0 0 0 0 0 0 
0 0 0 0 0 0 0 0 0 
0 0 0 0 0 0 0 0 0 
0 0 0 0 0 0 0 0 0 
0 0 0 0 0 0 0 0 0 
0 0 0 0 0 0 0 0 0 
0 0 0 0 0 0 0 0 0 
0 0 0 0 0 0 0 0 0 
0 0 0 0 0 0 0 0 0 
0 0 0 0 0 0 0 0 0 
0 0 0 0 0 0 0 0 0 
0 0 0 0 0 0 0 0 0 
0 0 0 0 0 0 0 0 0 
0 0 0 0 0 0 0 0 0 
0 0 0 0 0 0 0 0 0 
0 0 0 0 0 0 0 0 0 
0 0 0 0 0 0 0 0 0 
0 0 0 0 0 0 
v 3 848 double
-0.150544 -0.34945 -2.68627 -0.00995307 -0.36973 -2.66931 -0.235423 -0.349844 -2.58358 
-0.0504897 -0.215186 -2.30119 -0.219404 -0.368802 -2.26788 -0.0652621 -0.178092 -2.19226 
-0.130769 -0.28505 -2.14246 0.110456 -0.254487 -2.05554 0.0931829 -0.278324 -1.90109 
0.119796 -0.234867 -1.8962 0.0372947 -0.0785268 -1.7322 0.106629 -0.303408 -1.5455 
0.0320011 -0.30201 -1.54084 0.161289 -0.384775 -1.44839 -0.0723875 -0.258201 -1.46009 
0.0225701 -0.264759 -1.40586 -0.0547895 -0.244818 -1.27646 0.059008 -0.199292 -0.649959 
-0.073182 -0.185656 -0.577425 -0.0104286 -0.398357 -0.351076 -0.00751726 -0.291374 -0.314207 
0.17727 -0.259586 -0.323984 0.00338133 -0.202314 -0.320203 0.0727492 -0.191094 -0.240501 
0.000932047 -0.185507 -0.196743 -0.0295349 -0.217813 -0.12708 0.00525555 -0.179237 -0.140572 
0.0662837 -0.176141 -1.48249e-14 0.190628 -0.180203 2.46819e-14 0.0199976 -0.165681 0.017908 
-0.0883677 -0.164229 -5.43318e-14 0.077151 -0.155151 -1.48249e-14 -0.0387483 -0.295278 0.0162548 
0.0481512 -0.0518901 0.0257185 -0.116977 -0.146521 -3.06277e-14 -0.0598722 -0.124393 9.77819e-16 
-0.0712484 -0.178451 4.8386e-14 -0.0137142 -0.123754 -6.92356e-15 -0.0768347 -0.242228 8.87995e-15 
0.0407966 -0.144687 -2.27271e-14 0.0391899 -0.177566 4.8386e-14 0.116578 -0.107457 -6.92278e-15 
0.0755607 -0.0678163 -0.000698892 -0.00673701 -0.226771 -3.85298e-14 -0.0261645 -0.126083 -7.80351e-14 
0.0441874 -0.142081 -2.27263e-14 0.127005 -0.163009 3.25825e-14 0.152919 -0.112596 7.99923e-14 
-0.0172742 -0.159662 5.74683e-15 -0.146195 -0.170031 -7.80359e-14 0.0242316 -0.124981 -1.48241e-14 
-0.0546401 -0.0989205 9.77824e-16 -0.0356301 -0.116554 -1.48249e-14 -0.0432338 -0.204978 -2.27271e-14 
-0.0834311 -0.129916 5.62874e-14 0.0749032 -0.13184 7.20901e-14 -0.110541 -0.180523 -3.06269e-14 
-0.153785 -0.157784 -6.22324e-14 -0.0182229 -0.0836891 3.60526e-15 -0.0113509 -0.129064 -3.06269e-14 
0.00174516 -0.123609 -6.22331e-14 0.0193322 -0.0994086 7.20901e-14 -0.0338987 -0.0798383 -5.43325e-14 
-0.0854144 -0.108063 -6.06957e-07 -0.0277227 -0.0800309 -3.85298e-14 0.00210227 -0.0996632 -4.179e-12 
0.00656257 -0.125271 1.67805e-14 0.0489767 -0.134619 -8.59372e-14 0.0819189 -0.0980738 -7.80359e-14 
-0.0243615 -0.054321 -5.43318e-14 -0.253979 -0.161806 -4.64288e-14 -0.0773522 -0.0809323 -2.27263e-14 
-0.0515001 -0.0874587 5.62866e-14 -0.014915 -0.0785863 -7.01345e-14 0.0528025 -0.0461127 -7.01337e-14 
0.00128753 -0.0382631 2.74524e-05 0.0017702 -0.048797 1.69631e-08 -0.0840832 -0.0749088 1.67805e-14 
-0.0894644 -0.104562 4.04854e-14 -0.0668285 -0.0977167 7.99923e-14 -0.0748068 -0.088697 8.87997e-15 
-0.0119949 -0.0488918 -2.27271e-14 0.0591233 -0.136336 7.20909e-14 0.0081237 -0.145108 -2.61362e-14 
0.0151744 -0.147841 8.87106e-15 0.0200348 -0.146984 -6.22331e-14 -0.0696364 -0.0547327 -5.43325e-14 
-0.26384 -0.0904289 -6.92355e-15 -0.0677278 -0.0574202 7.99923e-14 -0.11334 -0.159321 -8.59365e-14 
-0.0667761 -0.0631155 -8.59365e-14 0.110911 -0.113573 7.99923e-14 -0.053848 -0.0704437 -6.92278e-15 
-0.0638963 -0.086607 -7.80359e-14 0.00261602 -0.091882 -1.48249e-14 -0.00502059 -0.132562 -0.000580777 
0.0139567 -0.0998245 -4.64296e-14 0.1155 -0.0691733 1.67805e-14 -0.0447109 -0.0968086 -0.0643178 
-0.0408139 -0.0455225 7.99923e-14 0.0242685 -0.0884186 -5.34944e-14 0.000385234 -0.101889 0.000159198 
0.0302018 -0.107099 -7.01345e-14 0.0599066 -0.113818 -2.27271e-14 -0.232743 -0.0737716 -2.66728e-08 
-0.0933173 -0.16976 -0.114563 -0.0978504 -0.181931 9.77822e-16 -0.0234276 -0.135962 -7.01337e-14 
0.0084199 -0.130192 -5.83629e-13 0.0291823 -0.0999352 -4.64296e-14 -0.0788297 -0.153578 -4.64288e-14 
-0.0363197 -0.137362 7.20901e-14 -0.0484446 -0.138799 -0.00255102 0.145157 -0.0391725 -2.27271e-14 
0.180291 -0.0527374 4.8386e-14 -0.0102199 -0.101694 0.00333901 0.0100795 -0.0443578 0.00678956 
0.0146758 -0.0718356 -8.59365e-14 0.0626874 -0.0710383 2.46819e-14 0.0872588 -0.120187 -2.27271e-14 
0.0379671 -0.0976953 -4.64296e-14 0.141373 -0.0507553 -6.27223e-08 0.121053 -0.027244 1.67798e-14 
-0.188917 -0.0741312 2.46827e-14 -0.110001 -0.0718188 -5.43318e-14 -0.138836 -0.0540601 -3.85298e-14 
-0.0558404 -0.113913 -1.38269e-14 -0.117756 -0.0907454 -5.52826e-06 -0.157586 -0.100048 -0.00504319 
0.00809728 -0.0871708 4.56109e-12 0.0382323 -0.00439515 -3.27862e-06 0.0342823 -0.15161 2.21605e-12 
0.0655342 -0.15783 0.00144984 0.00311347 -0.116919 0.000128827 0.0968225 -0.0631003 -5.43325e-14 
-0.11584 -0.00639306 -7.80359e-14 -0.00781453 -0.0657514 5.54343e-14 -0.0477204 -0.0550198 -0.00857226 
0.0428906 -0.11476 0.00148238 0.0547196 -0.107781 -1.49144e-14 0.0556808 -0.10579 4.65612e-14 
0.0758569 -0.0745999 7.99923e-14 0.23076 -0.0350676 2.46819e-14 0.0545483 -0.104961 1.68941e-14 
-0.0717492 -0.0273378 -6.92277e-15 -0.0292677 -0.014087 -4.58328e-06 0.21779 -0.198869 0.00500459 
0.0570814 -0.00425409 -0.00587626 0.0307988 0.00446293 -2.08837e-06 0.0448263 -0.0616708 -0.00112449 
-0.0805688 -0.104164 0.122455 0.143481 -0.090902 6.63909e-05 0.10868 -0.0790283 0.00951336 
0.148523 -0.0755236 -4.47994e-06 0.131684 -0.0323039 -6.22324e-14 -0.111967 0.0170613 9.78598e-16 
-0.0428141 0.0246422 -5.43325e-14 -0.054156 0.0232128 2.11115e-08 0.0341964 -0.0568944 -9.32883e-05 
0.0156169 -0.0104866 0.00204075 0.00929756 -0.0274791 -6.5469e-07 0.0412845 -0.0469303 9.77823e-16 
0.0115908 -0.0464501 -2.76101e-07 0.0465424 -0.0741054 -3.0808e-14 0.0691077 -0.0337281 3.25845e-14 
-0.129932 -0.0131509 -4.64296e-14 -0.124962 -0.005877 -8.59365e-14 -0.116866 -0.0561046 5.62874e-14 
0.0193786 -0.00578903 0.205826 0.0123612 -0.0274508 0.000172647 0.0339767 -0.0597219 0.000282348 
0.00017656 -0.124025 0.0177937 0.0903266 0.00160716 -0.0369781 0.0471824 0.0171435 4.83852e-14 
-0.105326 -0.0456194 0.000641608 -0.120896 -0.006356 -0.0128335 -0.0621406 -0.0248798 -9.06754e-07 
-0.0255386 0.0108395 0.00133375 -0.0436542 0.0193606 9.58514e-06 -0.0777985 0.0589308 -9.65588e-05 
-0.0242168 0.128675 0.0919498 0.0686815 -0.114156 0.0976524 0.00077309 -0.0302594 8.87996e-15 
-0.0677965 -0.043185 -7.01337e-14 -0.140127 -0.0175041 6.41888e-14 -0.220136 -0.0205069 5.75142e-06 
-0.106823 0.0111122 2.46819e-14 -0.161398 -0.0770725 7.20901e-14 -0.00778025 0.0065664 6.92427e-08 
0.00220912 0.0522616 -1.35825e-11 -0.00806705 0.0285235 0.000595872 -0.0381143 0.134175 0.0106677 
-0.00949875 -0.0645275 -0.006019 0.0617979 -0.0681281 -0.0219391 0.00985931 -0.0217417 -0.00154561 
0.0826821 0.0594843 0.00334453 0.111168 0.102518 0.152088 0.256821 -0.107657 -0.0339775 
0.0780968 -0.0473809 -6.22331e-14 0.104261 -0.0044926 -0.000436955 0.145883 0.00230105 4.04847e-14 
-0.0187491 -0.0600697 5.54318e-09 -0.126031 -0.0593363 -4.64288e-14 -0.101556 0.000887622 -3.71928e-05 
-0.0252513 -0.0245516 -0.0751153 0.0142261 -0.0853784 -4.03782e-05 0.0634451 -0.0693672 0.014757 
0.0595032 -0.0178133 -0.00322619 0.0849473 0.0845522 5.87997e-06 0.136947 0.0139077 4.47679e-11 
0.142217 -0.0265804 -0.000219134 0.0861184 -0.00301478 0.00410583 0.136529 0.0295299 -5.43325e-14 
0.141297 -0.0149811 -6.92355e-15 -0.0289678 0.0147036 -2.37371e-05 -0.0721488 -0.0187505 -7.13244e-15 
-0.0631659 0.00304678 -1.3287e-09 -0.0148681 0.0391295 -0.130819 0.027507 -0.0089047 -5.67487e-06 
0.0111282 -0.0359219 6.00653e-14 0.00441198 -0.0422494 1.47273e-12 0.0717803 0.0893256 0.0131943 
0.0135282 -0.0192781 3.12194e-09 0.130557 0.00307892 -0.0113689 0.10412 -0.00778487 0.000285646 
0.105486 -0.0259878 5.62874e-14 -0.152815 0.0208366 -4.64288e-14 -0.100992 0.00348231 4.00809e-08 
-0.156734 -0.0260337 1.99291e-11 -0.0833615 0.00337767 -7.37136e-15 -0.0644691 -0.00507336 1.15056e-13 
-0.0740387 -0.0165909 -2.34241e-09 0.0035615 0.0216074 -1.58515e-06 -0.00284972 -0.0322239 -0.069674 
0.0475671 0.0151097 0.00103838 0.123205 -0.0108626 0.0142433 0.0516307 -0.0259946 -0.145994 
0.0330566 0.00399244 0.00809544 0.0443959 0.116199 0.0153983 -0.113579 -0.0146861 9.45016e-09 
-0.0546962 -0.0170009 3.78748e-08 -0.0709314 0.0163832 -7.01345e-14 -0.0769555 -0.00959828 1.67798e-14 
-0.114054 0.0481646 -3.85308e-14 0.0274003 0.061988 0.0110003 0.0187964 0.0216518 0.0278335 
0.0265968 0.034655 1.77152e-06 -0.0105748 -0.00846601 -0.0112212 0.0081363 -0.00291124 0.000431572 
0.0232489 -0.0635559 0.00196709 0.0362979 0.00732112 0.0103555 0.0455358 -0.0411181 -4.14965e-10 
0.0565107 0.119369 1.47673e-13 0.0619105 -0.0156484 -0.00534284 0.0689636 -0.00797687 -6.21707e-05 
0.139293 0.0231693 6.41888e-14 0.119178 0.0803878 -2.27271e-14 0.154376 -0.053045 9.77819e-16 
0.00163711 -0.00581154 -6.22331e-14 -0.123357 0.00969163 4.04854e-14 -0.0822358 0.0329175 2.31889e-06 
-0.0559494 0.0195809 0.00205033 -0.0629336 0.0203255 -0.000171513 -0.0252752 0.0117243 -7.31499e-10 
-0.0427433 0.0301616 3.29536e-05 -0.0413599 -0.0157046 -0.00225033 0.125736 -0.00637265 -0.000142624 
0.0482099 0.079392 -0.000110151 0.0745098 0.0129329 5.52491e-07 0.137429 -0.0298207 1.67805e-14 
0.00981934 0.0016392 4.83852e-14 -0.134115 0.00937751 -7.80351e-14 -0.119908 -0.0103751 -3.85298e-14 
-0.0632907 0.012007 3.25825e-14 -0.0430818 0.000267054 4.04846e-14 -0.0926383 0.0438756 -1.76221e-06 
-0.0223901 0.0495433 1.58934e-11 -0.0310086 0.056047 0.000448627 0.0242006 0.08579 2.3252e-06 
0.0267273 0.0502812 1.01814e-05 0.042702 0.0722558 -0.00909788 0.0278906 0.0363748 -0.0117781 
0.0258504 0.064592 0.0285779 -0.038925 0.0331202 0.00140097 0.0505005 0.0167137 -0.00236178 