# vtk DataFile Version 4.0
Generated by LIGGGHTS
ASCII
DATASET POLYDATA
POINTS 910 float
0.0179555 0.0235359 0.0527467 -0.00459086 -0.0166776 0.0528962 -0.121351 -0.212532 -0.488722 
-0.0285125 -0.162535 -0.401653 -0.0849948 -0.205863 -0.39303 0.0773735 -0.149129 -0.37139 
-0.0740552 -0.178184 -0.357812 0.0762149 -0.167563 -0.333349 0.0326593 -0.1695 -0.293554 
0.0846583 -0.158533 -0.293331 -0.0059828 -0.118703 -0.253949 0.0432457 -0.164755 -0.212172 
0.0221836 -0.164253 -0.211149 -0.0368507 -0.152865 -0.194307 0.0757406 -0.178298 -0.191916 
0.0216197 -0.152749 -0.182349 0.0763483 -0.145558 -0.157412 0.0438752 -0.124379 -0.0608143 
-0.060836 -0.121347 -0.0522149 -0.0156157 -0.1365 -0.0298257 0.00304921 -0.125621 -0.0255126 
0.0841826 -0.123085 -0.0273764 -0.0252539 -0.117947 -0.0260424 0.0483822 -0.115382 -0.0202995 
-0.0957779 -0.114106 -0.0168739 0.0120459 -0.112605 -0.0127626 -0.0109003 -0.115024 -0.0108248 
-0.0314673 -0.111292 -0.00375331 0.0466958 -0.108733 -0.000559457 0.0830908 -0.108573 0.000392859 
0.0948661 -0.113281 0.00277272 -0.0587266 -0.105582 0.00583924 -0.0269158 -0.107252 0.00209939 
-0.0944562 -0.105517 0.00608639 0.0154288 -0.105224 0.00726752 -0.0635091 -0.10333 0.0105955 
0.0540119 -0.104959 0.00650199 -0.0821248 -0.0996556 0.0114983 -0.0159331 -0.100263 0.011488 
-0.00575706 -0.100688 0.0114568 -0.0944857 -0.0943691 0.0114983 -0.0344967 -0.0969739 0.0114983 
0.0307517 -0.095653 0.0114983 0.0353124 -0.0954225 0.0114983 -0.0222868 -0.0937073 0.0114983 
0.0105292 -0.0952324 0.0114983 0.075264 -0.0907036 0.0114983 0.0161388 -0.0890712 0.0114983 
0.0307415 -0.0893161 0.0114983 0.0702691 -0.0891177 0.0114983 0.0958998 -0.0902868 0.0114983 
-0.0735029 -0.0860228 0.0114983 -0.0211745 -0.0854109 0.0114983 0.0327469 -0.0848951 0.0114983 
0.0957784 -0.0854104 0.0114983 -0.0836569 -0.0829697 0.0114983 -0.0711804 -0.0812496 0.0114983 
-0.0242666 -0.0806975 0.0114983 -0.0178501 -0.0833743 0.0114983 -0.030974 -0.0784665 0.0114983 
0.0611709 -0.0798774 0.0114983 -0.0751002 -0.0759067 0.0114983 -0.00120648 -0.0746653 0.0114983 
0.0361576 -0.0730294 0.0114983 -0.0956547 -0.0709376 0.0114983 -0.0226499 -0.0708227 0.0114983 
-0.0186166 -0.0703183 0.0114983 0.00430919 -0.072342 0.0114983 0.00762246 -0.0705833 0.0114983 
0.0205851 -0.0705765 0.0114983 -0.0959478 -0.0673556 0.0114983 -0.053008 -0.0691778 0.0114983 
-0.0242289 -0.0672839 0.0114983 0.071982 -0.0681352 0.0114983 -0.0926878 -0.0620315 0.0114983 
-0.0581267 -0.0656355 0.0114983 -0.0422143 -0.0627346 0.0114983 -0.0374411 -0.0654949 0.0114983 
-0.0217745 -0.064146 0.0114983 0.0285448 -0.0619048 0.0114983 -0.095993 -0.0587804 0.0114983 
-0.092918 -0.0588465 0.0114983 -0.0597029 -0.0615118 0.0114983 -0.0476376 -0.0614768 0.0114983 
-0.0321229 -0.060669 0.0114983 0.00878261 -0.0597771 0.0114983 0.0107928 -0.062299 0.0114983 
0.0142393 -0.0627114 0.0114983 0.0164174 -0.0600558 0.0114983 -0.0916003 -0.0560993 0.0114982 
-0.0885563 -0.0558232 0.0115074 -0.0482802 -0.0576042 0.0114983 0.0196046 -0.0558315 0.0114983 
0.0498775 -0.0557362 0.0114983 -0.0537111 -0.0532146 0.0114983 -0.0314113 -0.0519002 0.0114983 
0.0121683 -0.0519171 0.0114983 -0.0342409 -0.0505229 0.0114983 -0.0370186 -0.0491646 0.0114983 
-0.0282969 -0.0483975 0.0114983 -0.0271755 -0.051547 0.0114983 -0.00471318 -0.0494435 0.0114983 
0.00356133 -0.0522738 0.0114981 0.00697822 -0.0486366 0.0114954 0.0255006 -0.0498047 0.0114985 
0.0410439 -0.0488164 0.0114983 0.0956941 -0.0504233 0.0114983 -0.0369784 -0.0460925 0.0114983 
-0.0175236 -0.046273 0.0114983 -0.00838543 -0.0483334 0.0115247 0.0187988 -0.0466028 0.0115682 
-0.0746764 -0.041716 0.0114983 -0.0498148 -0.0425939 0.0114983 -0.0294603 -0.043977 0.0114983 
-0.0299331 -0.0409851 0.0114983 -0.0229803 -0.0427503 0.0114983 0.0141878 -0.0430975 0.0114983 
0.0293605 -0.043415 0.0114983 -0.00891661 -0.0385383 0.0116012 0.0132327 -0.0396647 0.0114983 
0.0383792 -0.0391395 0.0114983 0.0736122 -0.0383703 0.0114983 0.0957908 -0.0371922 0.0116431 
-0.0359848 -0.0347556 0.0114983 -0.0286426 -0.0366168 0.0114977 -0.00289593 -0.0344944 0.0114983 
0.00127412 -0.0356849 0.0114985 0.0045327 -0.0371284 0.0116025 0.00583524 -0.0342817 0.0114991 
0.0114508 -0.0372162 0.0114983 0.0134847 -0.0348849 0.0114983 0.0320526 -0.0378995 0.0114983 
0.0704267 -0.0356751 0.0114983 0.0800949 -0.0340571 0.0114983 -0.0805713 -0.0308874 0.0114983 
-0.0744136 -0.030659 0.0114983 -0.0330961 -0.0319546 0.0114983 -0.00826385 -0.0335964 0.0114983 
-0.00602867 -0.0315253 0.0114967 -0.00114325 -0.0318993 0.0114983 0.00883641 -0.0339875 0.0114983 
0.00985053 -0.0305712 0.0114979 0.030183 -0.0326568 0.0114983 0.0481202 -0.0309392 0.0114983 
-0.090847 -0.0266931 0.0114983 -0.0341544 -0.0286642 0.0114983 -0.0248972 -0.0298746 0.0114983 
-0.0254634 -0.0269228 0.0114984 -0.0112616 -0.0283585 0.0114983 0.000979245 -0.0272343 0.0114982 
0.00482829 -0.0284211 0.0114983 0.00759048 -0.0271577 0.0114983 0.019872 -0.0289337 0.0116323 
0.0322305 -0.0301616 0.0122173 0.0356339 -0.0296916 0.0114983 0.0420796 -0.0277111 0.0114983 
-0.0876246 -0.0253697 0.0114983 -0.0633444 -0.02416 0.0114983 0.0126294 -0.0263606 0.0114983 
0.0284339 -0.0254054 0.0118423 0.0403479 -0.0239227 0.0114983 0.0467233 -0.0268507 0.0114983 
0.0952729 -0.0253024 0.0114983 -0.0647972 -0.0212641 0.0117757 -0.0526041 -0.0216884 0.0114983 
-0.02471 -0.0217918 0.0114983 0.000878188 -0.021863 0.011494 0.00456367 -0.0226214 0.0114976 
0.00981136 -0.0196565 0.0114983 0.0797659 -0.0225737 0.0114983 -0.0624598 -0.0173221 0.0114983 
-0.0447866 -0.0161673 0.0114983 -0.0283807 -0.0186184 0.0114983 -0.00686494 -0.0198391 0.0114984 
0.00323135 -0.019922 0.0118322 0.00530387 -0.0172674 0.0114983 0.0132532 -0.0186958 0.0115093 
0.0184868 -0.0173867 0.0114985 0.0282236 -0.0189054 0.0115453 0.0353617 -0.0187625 0.0114983 
0.0462814 -0.0186443 0.0114983 -0.0882233 -0.0122989 0.0115 -0.0852509 -0.0128054 0.0115319 
-0.052423 -0.0123067 0.0114983 -0.0418956 -0.0147818 0.0114983 -0.0284369 -0.0131027 0.0114983 
-0.000991642 -0.0158473 0.0114742 0.0231346 -0.0131249 0.0115016 0.0300063 -0.0162644 0.0114976 
0.0317875 -0.0138342 0.0114984 0.0599702 -0.0131491 0.0114983 -0.0648945 -0.00909127 0.0114983 
-0.0505437 -0.00934559 0.0114983 -0.043875 -0.0122348 0.0114983 -0.0295613 -0.00969882 0.0114982 
-0.0266168 -0.0106344 0.0114983 -0.0218108 -0.0103803 0.0114983 -0.0189259 -0.0115652 0.0114968 
-0.011753 -0.00923771 0.011498 -0.00568193 -0.00923329 0.0114983 -0.00295768 -0.0106614 0.0114976 
0.000934951 -0.00965644 0.0114983 0.00603372 -0.0104611 0.011498 0.0618545 -0.0094208 0.0114983 
-0.095733 -0.0072618 0.0114983 -0.092065 -0.0078227 0.0114983 -0.0763208 -0.00701788 0.0114983 
-0.0580165 -0.00743605 0.0114983 -0.0547204 -0.00730544 0.0114983 -0.0447323 -0.00746821 0.0114983 
-0.0277357 -0.0073534 0.012037 -0.0309667 -0.00698367 0.0116082 -0.0186025 -0.00834827 0.0114999 
-0.0171701 -0.00570771 0.0114977 -0.010997 -0.00632499 0.0114984 -0.00718902 -0.00635836 0.0114983 
0.00760199 -0.00786268 0.0115159 0.011277 -0.00787015 0.0114978 0.0144697 -0.00790719 0.0115538 
0.0498049 -0.00576989 0.0114984 0.0569794 -0.00564929 0.0114983 0.0673085 -0.0060792 0.0114983 
0.0814842 -0.00771224 0.0114983 -0.0643091 -0.00466394 0.0114983 -0.0473732 -0.00356061 0.0115028 
-0.0198839 -0.00421819 0.0114885 -0.0143989 -0.00359035 0.0114948 -0.0105519 -0.00335672 0.0114905 
-0.00569466 -0.00371152 0.0114543 0.00123806 -0.0049455 0.0114988 0.0123662 -0.00376922 0.0120303 
0.0204398 -0.00378106 0.0115001 0.0344685 -0.00340974 0.0114994 0.0663251 -0.00290908 0.0114983 
0.0736611 -0.00316402 0.0114983 0.0882974 -0.00530133 0.0114983 -0.0942797 0.000936422 0.0114983 
-0.0618622 0.000957188 0.0114983 -0.0489272 0.000521676 0.0114983 -0.0216951 -0.00155071 0.0117971 
-0.0206997 0.00129942 0.0114984 -0.0108025 0.00165985 0.0114983 -0.00344892 0.00227655 0.0115136 
0.00647695 -0.00115847 0.0117829 0.0173584 0.000159334 0.0114952 0.0221294 -0.0011395 0.0118417 
0.0348371 -0.000441818 0.0114918 0.0459247 0.00139286 0.0114984 0.068506 -0.000610922 0.0114983 
0.0715288 5.29133e-05 0.0114983 -0.0472956 0.00318129 0.0114983 -0.0442374 0.00428837 0.0114983 
-0.0406285 0.00202772 0.0114983 -0.00931876 0.00426605 0.0114955 0.00437622 0.00431674 0.0115126 
0.00750437 0.00368078 0.011498 0.0150528 0.0041638 0.0115275 0.0180112 0.00358503 0.0114983 
0.0213833 0.00507964 0.0115088 0.0338602 0.0029845 0.0114984 0.0369992 0.0023223 0.0114983 
0.0398685 0.00366951 0.0114983 0.0480526 0.00422574 0.011504 0.0954502 0.0035988 0.0114984 
-0.0644005 0.00558475 0.0114983 -0.0609877 0.00547391 0.0114983 -0.0565536 0.00675313 0.0114983 
-0.0485231 0.00713439 0.0114983 -0.0417657 0.00619358 0.0114983 -0.0334408 0.00669917 0.0114983 
-0.0165962 0.00828173 0.0114983 -0.0130967 0.00817382 0.0114952 -0.00667302 0.00567825 0.0117212 
-0.00478673 0.00800039 0.0114983 0.00620007 0.00669685 0.0114981 0.0085922 0.00855854 0.0116197 
0.0343351 0.00808715 0.0116354 0.0377991 0.0072995 0.0114983 0.0420872 0.00878073 0.0114945 
0.0698999 0.00892763 0.0114983 -0.0954542 0.0102794 0.0114983 -0.0806572 0.00943985 0.0114983 
-0.0200474 0.0102964 0.0114983 -0.0142832 0.0109318 0.0114984 -0.00769304 0.00935577 0.0114967 
-0.00214386 0.0094237 0.0114973 0.0175939 0.0127361 0.0115033 0.0275486 0.0112221 0.0119207 
0.0313441 0.00992453 0.0114983 0.0397058 0.0108599 0.011511 0.0432362 0.0117743 0.0114983 
0.0737106 0.00944442 0.0114983 0.0775141 0.0118706 0.0114991 -0.0936518 0.0140828 0.0114983 
-0.090963 0.0155304 0.0114981 -0.0570114 0.0142914 0.0114983 -0.0495708 0.0135774 0.0114983 
-0.0454929 0.0144186 0.0114983 -0.0430545 0.0124442 0.0114983 -0.0423005 0.0157208 0.0114983 
-0.0181041 0.0125904 0.0115924 -0.0148548 0.0139257 0.0114983 -0.00133302 0.0132075 0.0114985 
0.0040444 0.0153534 0.0115264 0.00585251 0.0129587 0.0114988 0.00981003 0.0125644 0.0118328 
0.0127738 0.0156009 0.0114991 0.0157498 0.0152365 0.0114973 0.0191962 0.0152699 0.0114976 
[...]
POINT_DATA 910
FIELD FieldData 7
id 1 910 int
906 903 282 30 89 12 6 105 206 
52 356 59 77 243 397 363 208 2 
4 386 416 189 324 265 9 112 154 
262 10 200 526 229 119 137 222 258 
393 252 267 406 343 73 173 76 83 
514 50 108 328 319 125 242 498 110 
19 283 290 8 307 18 97 591 192 
75 353 90 161 333 458 418 71 281 
85 11 179 409 32 268 523 251 47 
45 202 378 152 588 475 101 487 107 
358 489 433 63 425 240 438 218 314 
308 371 546 263 214 559 525 23 665 
352 540 615 205 598 502 695 726 566 
109 460 339 550 448 249 476 600 120 
521 694 612 496 587 139 292 164 211 
197 719 172 782 127 123 611 626 482 
436 320 760 721 744 578 571 669 743 
524 603 610 495 368 599 785 500 630 
507 663 344 713 72 677 294 305 84 
510 572 734 459 444 278 656 753 681 
366 64 153 561 527 756 185 767 643 
705 585 227 36 315 772 25 347 303 
146 395 701 715 373 346 217 114 174 
412 651 575 250 768 499 617 653 639 
456 288 820 562 355 538 295 501 474 
473 150 757 765 533 689 834 574 302 
384 201 74 239 228 842 745 592 121 
244 652 783 163 601 420 411 96 162 
226 564 275 484 727 731 833 759 690 
573 687 257 334 253 289 404 488 624 
625 472 730 637 511 532 740 579 522 
369 210 204 332 627 616 293 512 586 
563 213 545 548 342 61 291 553 432 
264 407 316 552 266 468 497 341 707 
485 537 360 597 136 165 577 678 779 
345 576 642 584 359 558 431 296 539 
766 717 392 280 329 604 419 640 190 
565 786 590 86 754 434 668 230 605 
732 680 424 198 461 33 231 508 549 
811 421 720 628 676 589 309 133 277 
178 613 674 140 547 520 519 675 655 
276 692 370 513 331 708 483 536 318 
649 171 534 102 629 471 379 486 445 
435 650 641 408 330 422 357 457 618 
151 327 100 270 382 631 450 22 688 
255 437 186 354 238 215 551 87 462 
49 385 405 321 38 463 381 383 99 
470 70 21 269 317 372 446 423 148 
399 449 122 60 241 159 304 177 212 
51 237 398 20 256 394 224 254 134 
223 166 176 88 98 509 39 396 135 
65 46 62 111 147 225 187 124 203 
26 216 175 149 188 34 57 35 301 
410 191 306 138 58 13 7 113 37 
24 367 95 184 68 260 261 375 168 
132 529 541 325 167 144 92 300 142 
348 285 481 313 336 634 42 156 389 
477 464 16 635 365 594 528 413 638 
494 40 568 414 15 581 729 506 467 
593 693 518 452 595 583 543 623 439 
387 710 219 157 155 718 737 364 666 
248 67 337 755 129 402 284 335 403 
14 787 469 821 807 835 29 323 660 
141 809 679 443 847 784 504 274 442 
644 828 340 560 417 247 3 193 698 
733 535 816 235 773 415 91 181 131 
465 683 391 843 818 814 712 704 246 
170 709 849 798 686 793 633 361 207 
429 531 455 657 794 380 736 646 671 
376 79 286 557 728 126 648 619 824 
115 749 661 614 94 362 696 158 596 
840 279 861 517 351 684 670 582 776 
326 390 789 722 739 441 608 311 622 
845 427 799 672 447 609 803 802 492 
700 480 350 762 777 817 711 703 180 
788 659 221 271 245 183 199 831 746 
714 27 763 606 742 544 505 232 813 
682 81 741 647 466 781 839 491 451 
117 41 567 145 195 836 791 143 636 
662 822 805 685 832 5 298 440 66 
236 699 751 774 570 848 516 454 654 
702 621 490 55 259 691 116 859 761 
580 106 555 645 738 607 797 17 697 
338 388 542 530 493 778 804 673 322 
620 658 515 747 287 426 209 169 400 
377 430 769 53 220 428 272 790 273 
103 349 54 556 44 310 196 401 478 
569 554 128 43 69 80 312 297 93 
299 182 234 479 503 194 130 374 104 
233 1 56 453 31 28 118 78 750 
812 602 825 841 830 800 857 724 723 
632 801 854 795 846 706 667 844 810 
850 770 858 838 796 764 860 775 806 
855 748 752 823 853 837 780 792 716 
826 725 664 808 827 871 851 758 869 
829 771 856 852 819 866 870 815 873 
864 872 862 863 865 868 874 867 735 
879 887 878 876 884 882 883 886 881 
880 885 899 875 877 893 895 889 888 
894 900 898 897 896 911 890 891 892 
908 910 907 902 912 905 913 901 904 
909 
type 1 910 int
1 1 1 1 1 1 1 1 1 
1 1 1 1 1 1 1 1 1 
1 1 1 1 1 1 1 1 1 
1 1 1 1 1 1 1 1 1 
1 1 1 1 1 1 1 1 1 
1 1 1 1 1 1 1 1 1 
1 1 1 1 1 1 1 1 1 
1 1 1 1 1 1 1 1 1 
1 1 1 1 1 1 1 1 1 
1 1 1 1 1 1 1 1 1 
1 1 1 1 1 1 1 1 1 
1 1 1 1 1 1 1 1 1 
1 1 1 1 1 1 1 1 1 
1 1 1 1 1 1 1 1 1 
1 1 1 1 1 1 1 1 1 
1 1 1 1 1 1 1 1 1 
1 1 1 1 1 1 1 1 1 
1 1 1 1 1 1 1 1 1 
1 1 1 1 1 1 1 1 1 
1 1 1 1 1 1 1 1 1 
1 1 1 1 1 1 1 1 1 
1 1 1 1 1 1 1 1 1 
1 1 1 1 1 1 1 1 1 
1 1 1 1 1 1 1 1 1 
1 1 1 1 1 1 1 1 1 
1 1 1 1 1 1 1 1 1 
1 1 1 1 1 1 1 1 1 
1 1 1 1 1 1 1 1 1 
1 1 1 1 1 1 1 1 1 
1 1 1 1 1 1 1 1 1 
1 1 1 1 1 1 1 1 1 
1 1 1 1 1 1 1 1 1 
1 1 1 1 1 1 1 1 1 
1 1 1 1 1 1 1 1 1 
1 1 1 1 1 1 1 1 1 
1 1 1 1 1 1 1 1 1 
1 1 1 1 1 1 1 1 1 
1 1 1 1 1 1 1 1 1 
1 1 1 1 1 1 1 1 1 
1 1 1 1 1 1 1 1 1 
1 1 1 1 1 1 1 1 1 
1 1 1 1 1 1 1 1 1 
1 1 1 1 1 1 1 1 1 
1 1 1 1 1 1 1 1 1 
1 1 1 1 1 1 1 1 1 
1 1 1 1 1 1 1 1 1 
1 1 1 1 1 1 1 1 1 
1 1 1 1 1 1 1 1 1 
1 1 1 1 1 1 1 1 1 
1 1 1 1 1 1 1 1 1 
1 1 1 1 1 1 1 1 1 
1 1 1 1 1 1 1 1 1 
1 1 1 1 1 1 1 1 1 
1 1 1 1 1 1 1 1 1 
1 1 1 1 1 1 1 1 1 
1 1 1 1 1 1 1 1 1 
1 1 1 1 1 1 1 1 1 
1 1 1 1 1 1 1 1 1 
1 1 1 1 1 1 1 1 1 
1 1 1 1 1 1 1 1 1 
1 1 1 1 1 1 1 1 1 
1 1 1 1 1 1 1 1 1 
1 1 1 1 1 1 1 1 1 
1 1 1 1 1 1 1 1 1 
1 1 1 1 1 1 1 1 1 
1 1 1 1 1 1 1 1 1 
1 1 1 1 1 1 1 1 1 
1 1 1 1 1 1 1 1 1 
1 1 1 1 1 1 1 1 1 
1 1 1 1 1 1 1 1 1 
1 1 1 1 1 1 1 1 1 
1 1 1 1 1 1 1 1 1 
1 1 1 1 1 1 1 1 1 
1 1 1 1 1 1 1 1 1 
1 1 1 1 1 1 1 1 1 
1 1 1 1 1 1 1 1 1 
1 1 1 1 1 1 1 1 1 
1 1 1 1 1 1 1 1 1 
1 1 1 1 1 1 1 1 1 
1 1 1 1 1 1 1 1 1 
1 1 1 1 1 1 1 1 1 
1 1 1 1 1 1 1 1 1 
1 1 1 1 1 1 1 1 1 
1 1 1 1 1 1 1 1 1 
1 1 1 1 1 1 1 1 1 
1 1 1 1 1 1 1 1 1 
1 1 1 1 1 1 1 1 1 
1 1 1 1 1 1 1 1 1 
1 1 1 1 1 1 1 1 1 
1 1 1 1 1 1 1 1 1 
1 1 1 1 1 1 1 1 1 
1 1 1 1 1 1 1 1 1 
1 1 1 1 1 1 1 1 1 
1 1 1 1 1 1 1 1 1 
1 1 1 1 1 1 1 1 1 
1 1 1 1 1 1 1 1 1 
1 1 1 1 1 1 1 1 1 
1 1 1 1 1 1 1 1 1 
1 1 1 1 1 1 1 1 1 
1 1 1 1 1 1 1 1 1 
1 1 1 1 1 1 1 1 1 
1 
i 3 910 int
0 0 0 0 0 0 0 0 0 
0 0 0 0 0 0 0 0 0 
0 0 0 0 0 0 0 0 0 
0 0 0 0 0 0 0 0 0 
0 0 0 0 0 0 0 0 0 
0 0 0 0 0 0 0 0 0 
0 0 0 0 0 0 0 0 0 
0 0 0 0 0 0 0 0 0 
0 0 0 0 0 0 0 0 0 
0 0 0 0 0 0 0 0 0 
0 0 0 0 0 0 0 0 0 
0 0 0 0 0 0 0 0 0 
0 0 0 0 0 0 0 0 0 
0 0 0 0 0 0 0 0 0 
0 0 0 0 0 0 0 0 0 
0 0 0 0 0 0 0 0 0 
0 0 0 0 0 0 0 0 0 
0 0 0 0 0 0 0 0 0 
0 0 0 0 0 0 0 0 0 
0 0 0 0 0 0 0 0 0 
0 0 0 0 0 0 0 0 0 
0 0 0 0 0 0 0 0 0 
0 0 0 0 0 0 0 0 0 
0 0 0 0 0 0 0 0 0 
0 0 0 0 0 0 0 0 0 
0 0 0 0 0 0 0 0 0 
0 0 0 0 0 0 0 0 0 
0 0 0 0 0 0 0 0 0 
0 0 0 0 0 0 0 0 0 
0 0 0 0 0 0 0 0 0 
0 0 0 0 0 0 0 0 0 
0 0 0 0 0 0 0 0 0 
0 0 0 0 0 0 0 0 0 
0 0 0 0 0 0 0 0 0 
0 0 0 0 0 0 0 0 0 
0 0 0 0 0 0 0 0 0 
0 0 0 0 0 0 0 0 0 
0 0 0 0 0 0 0 0 0 
0 0 0 0 0 0 0 0 0 
0 0 0 0 0 0 0 0 0 
0 0 0 0 0 0 0 0 0 
0 0 0 0 0 0 0 0 0 
0 0 0 0 0 0 0 0 0 
0 0 0 0 0 0 0 0 0 
0 0 0 0 0 0 0 0 0 
0 0 0 0 0 0 0 0 0 
0 0 0 0 0 0 0 0 0 
0 0 0 0 0 0 0 0 0 
0 0 0 0 0 0 0 0 0 
0 0 0 0 0 0 0 0 0 
0 0 0 0 0 0 0 0 0 
0 0 0 0 0 0 0 0 0 
0 0 0 0 0 0 0 0 0 
0 0 0 0 0 0 0 0 0 
0 0 0 0 0 0 0 0 0 
0 0 0 0 0 0 0 0 0 
0 0 0 0 0 0 0 0 0 
0 0 0 0 0 0 0 0 0 
0 0 0 0 0 0 0 0 0 
0 0 0 0 0 0 0 0 0 
0 0 0 0 0 0 0 0 0 
0 0 0 0 0 0 0 0 0 
0 0 0 0 0 0 0 0 0 
0 0 0 0 0 0 0 0 0 
0 0 0 0 0 0 0 0 0 
0 0 0 0 0 0 0 0 0 
0 0 0 0 0 0 0 0 0 
0 0 0 0 0 0 0 0 0 
0 0 0 0 0 0 0 0 0 
0 0 0 0 0 0 0 0 0 
0 0 0 0 0 0 0 0 0 
0 0 0 0 0 0 0 0 0 
0 0 0 0 0 0 0 0 0 
0 0 0 0 0 0 0 0 0 
0 0 0 0 0 0 0 0 0 
0 0 0 0 0 0 0 0 0 
0 0 0 0 0 0 0 0 0 
0 0 0 0 0 0 0 0 0 
0 0 0 0 0 0 0 0 0 
0 0 0 0 0 0 0 0 0 
0 0 0 0 0 0 0 0 0 
0 0 0 0 0 0 0 0 0 
0 0 0 0 0 0 0 0 0 
0 0 0 0 0 0 0 0 0 
0 0 0 0 0 0 0 0 0 
0 0 0 0 0 0 0 0 0 
0 0 0 0 0 0 0 0 0 
0 0 0 0 0 0 0 0 0 
0 0 0 0 0 0 0 0 0 
0 0 0 0 0 0 0 0 0 
0 0 0 0 0 0 0 0 0 
0 0 0 0 0 0 0 0 0 
0 0 0 0 0 0 0 0 0 
0 0 0 0 0 0 0 0 0 
0 0 0 0 0 0 0 0 0 
0 0 0 0 0 0 0 0 0 
0 0 0 0 0 0 0 0 0 
0 0 0 0 0 0 0 0 0 
0 0 0 0 0 0 0 0 0 
0 0 0 0 0 0 0 0 0 
0 0 0 0 0 0 0 0 0 
0 0 0 0 0 0 0 0 0 
0 0 0 0 0 0 0 0 0 
0 0 0 0 0 0 0 0 0 
0 0 0 0 0 0 0 0 0 
0 0 0 0 0 0 0 0 0 
0 0 0 0 0 0 0 0 0 
0 0 0 0 0 0 0 0 0 
0 0 0 0 0 0 0 0 0 
0 0 0 0 0 0 0 0 0 
0 0 0 0 0 0 0 0 0 
0 0 0 0 0 0 0 0 0 
0 0 0 0 0 0 0 0 0 
0 0 0 0 0 0 0 0 0 
0 0 0 0 0 0 0 0 0 
0 0 0 0 0 0 0 0 0 
0 0 0 0 0 0 0 0 0 
0 0 0 0 0 0 0 0 0 
0 0 0 0 0 0 0 0 0 
0 0 0 0 0 0 0 0 0 
0 0 0 0 0 0 0 0 0 
0 0 0 0 0 0 0 0 0 
0 0 0 0 0 0 0 0 0 
0 0 0 0 0 0 0 0 0 
0 0 0 0 0 0 0 0 0 
0 0 0 0 0 0 0 0 0 
0 0 0 0 0 0 0 0 0 
0 0 0 0 0 0 0 0 0 
0 0 0 0 0 0 0 0 0 
0 0 0 0 0 0 0 0 0 
0 0 0 0 0 0 0 0 0 
0 0 0 0 0 0 0 0 0 
0 0 0 0 0 0 0 0 0 
0 0 0 0 0 0 0 0 0 
0 0 0 0 0 0 0 0 0 
0 0 0 0 0 0 0 0 0 
0 0 0 0 0 0 0 0 0 
0 0 0 0 0 0 0 0 0 
0 0 0 0 0 0 0 0 0 
0 0 0 0 0 0 0 0 0 
0 0 0 0 0 0 0 0 0 
0 0 0 0 0 0 0 0 0 
0 0 0 0 0 0 0 0 0 
0 0 0 0 0 0 0 0 0 
0 0 0 0 0 0 0 0 0 
0 0 0 0 0 0 0 0 0 
0 0 0 0 0 0 0 0 0 
0 0 0 0 0 0 0 0 0 
0 0 0 0 0 0 0 0 0 
0 0 0 0 0 0 0 0 0 
0 0 0 0 0 0 0 0 0 
0 0 0 0 0 0 0 0 0 
0 0 0 0 0 0 0 0 0 
0 0 0 0 0 0 0 0 0 
0 0 0 0 0 0 0 0 0 
0 0 0 0 0 0 0 0 0 
0 0 0 0 0 0 0 0 0 
0 0 0 0 0 0 0 0 0 
0 0 0 0 0 0 0 0 0 
0 0 0 0 0 0 0 0 0 
0 0 0 0 0 0 0 0 0 
0 0 0 0 0 0 0 0 0 
0 0 0 0 0 0 0 0 0 
0 0 0 0 0 0 0 0 0 
0 0 0 0 0 0 0 0 0 
0 0 0 0 0 0 0 0 0 
0 0 0 0 0 0 0 0 0 
0 0 0 0 0 0 0 0 0 
0 0 0 0 0 0 0 0 0 
0 0 0 0 0 0 0 0 0 
0 0 0 0 0 0 0 0 0 
0 0 0 0 0 0 0 0 0 
0 0 0 0 0 0 0 0 0 
0 0 0 0 0 0 0 0 0 
0 0 0 0 0 0 0 0 0 
0 0 0 0 0 0 0 0 0 
0 0 0 0 0 0 0 0 0 
0 0 0 0 0 0 0 0 0 
0 0 0 0 0 0 0 0 0 
0 0 0 0 0 0 0 0 0 
0 0 0 0 0 0 0 0 0 
0 0 0 0 0 0 0 0 0 
0 0 0 0 0 0 0 0 0 
0 0 0 0 0 0 0 0 0 
0 0 0 0 0 0 0 0 0 
0 0 0 0 0 0 0 0 0 
0 0 0 0 0 0 0 0 0 
0 0 0 0 0 0 0 0 0 
0 0 0 0 0 0 0 0 0 
0 0 0 0 0 0 0 0 0 
0 0 0 0 0 0 0 0 0 
0 0 0 0 0 0 0 0 0 
0 0 0 0 0 0 0 0 0 
0 0 0 0 0 0 0 0 0 
0 0 0 0 0 0 0 0 0 
0 0 0 0 0 0 0 0 0 
0 0 0 0 0 0 0 0 0 
0 0 0 0 0 0 0 0 0 
0 0 0 0 0 0 0 0 0 
0 0 0 0 0 0 0 0 0 
0 0 0 0 0 0 0 0 0 
0 0 0 0 0 0 0 0 0 
0 0 0 0 0 0 0 0 0 
0 0 0 0 0 0 0 0 0 
0 0 0 0 0 0 0 0 0 
0 0 0 0 0 0 0 0 0 
0 0 0 0 0 0 0 0 0 
0 0 0 0 0 0 0 0 0 
0 0 0 0 0 0 0 0 0 
0 0 0 0 0 0 0 0 0 
0 0 0 0 0 0 0 0 0 
0 0 0 0 0 0 0 0 0 
0 0 0 0 0 0 0 0 0 
0 0 0 0 0 0 0 0 0 
0 0 0 0 0 0 0 0 0 
0 0 0 0 0 0 0 0 0 
0 0 0 0 0 0 0 0 0 
0 0 0 0 0 0 0 0 0 
0 0 0 0 0 0 0 0 0 
0 0 0 0 0 0 0 0 0 
0 0 0 0 0 0 0 0 0 
0 0 0 0 0 0 0 0 0 
0 0 0 0 0 0 0 0 0 
0 0 0 0 0 0 0 0 0 
0 0 0 0 0 0 0 0 0 
0 0 0 0 0 0 0 0 0 
0 0 0 0 0 0 0 0 0 
0 0 0 0 0 0 0 0 0 
0 0 0 0 0 0 0 0 0 
0 0 0 0 0 0 0 0 0 
0 0 0 0 0 0 0 0 0 
0 0 0 0 0 0 0 0 0 
0 0 0 0 0 0 0 0 0 
0 0 0 0 0 0 0 0 0 
0 0 0 0 0 0 0 0 0 
0 0 0 0 0 0 0 0 0 
0 0 0 0 0 0 0 0 0 
0 0 0 0 0 0 0 0 0 
0 0 0 0 0 0 0 0 0 
0 0 0 0 0 0 0 0 0 
0 0 0 0 0 0 0 0 0 
0 0 0 0 0 0 0 0 0 
0 0 0 0 0 0 0 0 0 
0 0 0 0 0 0 0 0 0 
0 0 0 0 0 0 0 0 0 
0 0 0 0 0 0 0 0 0 
0 0 0 0 0 0 0 0 0 
0 0 0 0 0 0 0 0 0 
0 0 0 0 0 0 0 0 0 
0 0 0 0 0 0 0 0 0 
0 0 0 0 0 0 0 0 0 
0 0 0 0 0 0 0 0 0 
0 0 0 0 0 0 0 0 0 
0 0 0 0 0 0 0 0 0 
0 0 0 0 0 0 0 0 0 
0 0 0 0 0 0 0 0 0 
0 0 0 0 0 0 0 0 0 
0 0 0 0 0 0 0 0 0 
0 0 0 0 0 0 0 0 0 
0 0 0 0 0 0 0 0 0 
0 0 0 0 0 0 0 0 0 
0 0 0 0 0 0 0 0 0 
0 0 0 0 0 0 0 0 0 
0 0 0 0 0 0 0 0 0 
0 0 0 0 0 0 0 0 0 
0 0 0 0 0 0 0 0 0 
0 0 0 0 0 0 0 0 0 
0 0 0 0 0 0 0 0 0 
0 0 0 0 0 0 0 0 0 
0 0 0 0 0 0 0 0 0 
0 0 0 0 0 0 0 0 0 
0 0 0 0 0 0 0 0 0 
0 0 0 0 0 0 0 0 0 
0 0 0 0 0 0 0 0 0 
0 0 0 0 0 0 0 0 0 
0 0 0 0 0 0 0 0 0 
0 0 0 0 0 0 0 0 0 
0 0 0 0 0 0 0 0 0 
0 0 0 0 0 0 0 0 0 
0 0 0 0 0 0 0 0 0 
0 0 0 0 0 0 0 0 0 
0 0 0 0 0 0 0 0 0 
0 0 0 0 0 0 0 0 0 
0 0 0 0 0 0 0 0 0 
0 0 0 0 0 0 0 0 0 
0 0 0 0 0 0 0 0 0 
0 0 0 0 0 0 0 0 0 
0 0 0 0 0 0 0 0 0 
0 0 0 0 0 0 0 0 0 
0 0 0 0 0 0 0 0 0 
0 0 0 0 0 0 0 0 0 
0 0 0 0 0 0 0 0 0 
0 0 0 0 0 0 0 0 0 
0 0 0 0 0 0 0 0 0 
0 0 0 0 0 0 0 0 0 
0 0 0 0 0 0 0 0 0 
0 0 0 0 0 0 0 0 0 
0 0 0 0 0 0 0 0 0 
0 0 0 0 0 0 0 0 0 
0 0 0 0 0 0 0 0 0 
0 0 0 0 0 0 0 0 0 
0 0 0 0 0 0 0 0 0 
0 0 0 0 0 0 0 0 0 
0 0 0 
v 3 910 double
-0 -0 -1 -0 -0 -1 -0.235423 -0.349844 -3.13294 
-0.0504897 -0.215186 -2.85055 -0.219404 -0.368802 -2.81724 -0.0652621 -0.178092 -2.74162 
-0.130769 -0.28505 -2.69182 0.110456 -0.254487 -2.6049 0.0931829 -0.278324 -2.45045 
0.119796 -0.234867 -2.44556 0.0372947 -0.0785268 -2.28156 0.106629 -0.303408 -2.09486 
0.0320011 -0.30201 -2.0902 -0.0723875 -0.258201 -2.00945 0.161289 -0.384775 -1.99775 
0.0225701 -0.264759 -1.95522 -0.0547895 -0.244818 -1.82582 0.059008 -0.199292 -1.19932 
-0.073182 -0.185656 -1.12678 -0.0104286 -0.398357 -0.900436 -0.00751726 -0.291374 -0.863567 
0.17727 -0.259586 -0.873344 0.00338133 -0.202314 -0.869563 0.0727492 -0.191094 -0.789861 
0.000932047 -0.185507 -0.746103 0.00525555 -0.179237 -0.689932 -0.0295349 -0.217813 -0.67644 
-0.020506 -0.195886 -0.564648 0.0664469 -0.176129 -0.486395 0.190098 -0.180191 -0.466793 
-0.0166739 -0.315829 -0.413768 -0.0885939 -0.164217 -0.333223 -0.0499472 -0.156625 -0.451657 
0.0191592 -0.165968 -0.325866 0.0315197 -0.158784 -0.320305 -0.0972053 -0.167425 -0.193135 
0.076366 -0.155137 -0.313105 -0.116977 -0.146521 -3.06277e-14 -0.0714214 -0.178438 -0.0144837 
-0.0765058 -0.242214 -0.0286577 0.0221214 -0.0722529 -8.59364e-14 -0.0598722 -0.124393 9.77819e-16 
0.0407966 -0.144687 -2.27271e-14 0.0391899 -0.177566 4.8386e-14 -0.0137142 -0.123754 -6.92356e-15 
-0.00673701 -0.226771 -3.85298e-14 0.116578 -0.107457 -6.92278e-15 -0.0261645 -0.126083 -7.80351e-14 
0.0441874 -0.142081 -2.27263e-14 0.127005 -0.163009 3.25825e-14 -0.00326197 -0.139485 9.70043e-16 
-0.146195 -0.170031 -7.80359e-14 -0.0551314 -0.193144 -3.85298e-14 0.0242316 -0.124981 -1.48241e-14 
-0.011223 -0.0951381 -5.15301e-07 0.076742 -0.0639368 -3.06269e-14 -0.110541 -0.180523 -3.06269e-14 
-0.0356301 -0.116554 -1.48249e-14 -0.0476116 -0.143061 -7.01345e-14 -0.0546401 -0.0989205 9.77824e-16 
0.0749032 -0.13184 7.20901e-14 -0.153785 -0.157784 -6.22324e-14 0.0109714 -0.124992 -4.64296e-14 
0.0193322 -0.0994086 7.20901e-14 -0.175254 -0.193973 -1.25505e-07 -0.0182229 -0.0836891 -3.85298e-14 
0.00210227 -0.0996632 -6.22331e-14 0.00174516 -0.123609 -6.22331e-14 0.00656257 -0.125271 1.67805e-14 
0.0489767 -0.134619 -8.59372e-14 0.00583158 -0.059853 9.79611e-07 -0.0854144 -0.108063 6.41895e-14 
-0.0277227 -0.0800309 -3.85298e-14 0.0819189 -0.0980738 -7.80359e-14 -0.0219035 -0.0556811 9.77811e-16 
-0.0773522 -0.0809323 -2.27263e-14 -0.0668285 -0.0977167 7.99923e-14 -0.0515001 -0.0874587 5.62866e-14 
-0.014915 -0.0785863 -7.01345e-14 0.0528025 -0.0461127 -7.01337e-14 0.000354374 -0.0363374 -5.33016e-14 
-0.00293215 -0.0481381 2.72805e-05 -0.0840832 -0.0749088 1.67805e-14 -0.0894644 -0.104562 4.04854e-14 
-0.0748068 -0.088697 8.87997e-15 0.0318518 -0.116091 1.25392e-10 0.0143897 -0.149513 -1.54615e-12 
0.0151744 -0.147841 8.87918e-15 -0.0158023 -0.14711 -5.43325e-14 -0.0161615 -0.0224126 -0.000594571 
0.00919298 -0.137957 -0.0253774 -0.11334 -0.159321 -8.59365e-14 -0.0124433 -0.0548651 -7.80351e-14 
0.110911 -0.113573 7.99923e-14 -0.0677278 -0.0574202 7.99923e-14 -0.0667761 -0.0631155 -8.59365e-14 
0.0139567 -0.0998245 -4.64296e-14 -0.053848 -0.0704437 -6.92278e-15 -0.0573879 -0.114204 1.34084e-07 
-0.0468679 -0.0961964 -4.64296e-14 -0.10337 -0.0905246 2.74989e-12 0.00261602 -0.091882 -1.48249e-14 
-0.00604833 -0.141982 7.36334e-05 0.00633001 -0.11295 0.00565154 0.0341494 -0.122217 -0.000167383 
0.0599066 -0.113818 -2.27271e-14 -0.0156925 -0.056592 0.000249649 -0.0650849 -0.107322 -5.62656e-08 
-0.0175179 -0.0624341 1.67798e-14 0.0298162 -0.0805228 0.00872684 0.0123376 -0.104454 0.0100261 
-0.136834 -0.102787 2.46819e-14 -0.232743 -0.0737716 -4.64296e-14 -0.0739971 -0.0565677 9.78593e-16 
-0.0822982 -0.0573691 -5.49972e-15 -0.0247731 -0.0855588 -4.58279e-14 -0.043632 -0.13522 -1.48241e-14 
0.0291823 -0.0999352 -4.64296e-14 -0.0349456 -0.113878 0.00991977 0.00699269 -0.0939099 -1.32758e-05 
0.0379671 -0.0976953 -4.64296e-14 0.145157 -0.0391725 -2.27271e-14 -0.0526302 -0.0131896 0.00754579 
-0.0558404 -0.113913 3.25825e-14 -0.160952 -0.131708 2.93773e-05 0.0414981 -0.0714585 2.84708e-14 
0.0240672 -0.0707742 -0.000451665 -0.00677019 -0.0556505 0.0060633 0.038824 -0.0502441 0.000559277 
0.0129551 -0.0827071 -4.748e-05 0.0163322 -0.0871708 -5.43325e-14 0.0872588 -0.120187 -2.27271e-14 
0.141373 -0.0507553 6.41888e-14 0.121053 -0.027244 1.67798e-14 -0.110001 -0.0718188 -5.43318e-14 
-0.138836 -0.0540601 -3.85298e-14 -0.125668 -0.0718503 6.41888e-14 -0.0149903 -0.0912646 1.22313e-06 
-0.0290353 -0.0879795 0.00166616 0.0298983 -0.0885561 1.22567e-11 0.0378348 -0.0955364 -6.29646e-09 
0.0838706 -0.0726601 -0.000579683 0.0575045 -0.118998 -7.24237e-08 0.0968225 -0.0631003 -5.43325e-14 
-0.0253971 -0.000332265 -2.01872e-09 -0.00781453 -0.0657514 5.62866e-14 -0.110188 -0.0308189 1.45405e-05 
-0.106173 -0.0272047 -1.34802e-05 -0.107854 -0.0541514 -1.7013e-08 0.0864429 -0.0784603 -0.000360447 
0.0213128 -0.0647117 -3.85772e-06 0.0255504 -0.0631679 -3.14228e-08 0.159423 -0.212586 -0.0433555 
0.166035 -0.152952 -0.00807539 0.0758569 -0.0745999 7.99923e-14 0.144014 -0.0581768 1.41653e-05 
0.0635725 -0.0682041 5.32973e-10 -0.11584 -0.00639306 -7.80359e-14 0.065673 -0.0984387 -1.48241e-14 
0.176079 -0.214191 -0.018363 0.111979 -0.0610125 -8.49047e-07 0.148523 -0.0755236 7.20909e-14 
-0.00542747 0.0227025 3.96349e-05 -0.0226223 0.0620764 -0.0180112 -0.0717492 -0.0273378 -6.92277e-15 
-0.101489 -0.0481681 -8.9617e-10 0.0117763 -0.0923302 0.0452298 0.085915 -0.0231298 -0.00209215 
0.0220624 -0.0317381 9.75679e-14 0.0826052 -0.0626802 -5.52619e-14 -0.111967 0.0170613 9.78598e-16 
-0.0836371 0.00960737 -3.07983e-14 -0.0560054 -0.0254194 3.25833e-14 -0.0406625 -0.0992541 -6.94747e-05 
0.0182439 -0.0769684 0.0435835 -0.0490832 -0.0635546 -3.7746e-06 0.0464818 -0.0570491 -0.0129607 
0.0694815 -0.0312844 2.11764e-05 0.205069 -0.20913 0.042291 0.0644329 -0.0325487 4.8386e-14 
0.0850621 -0.0335982 -1.31227e-05 -0.0696498 0.0351089 -0.00255359 -0.0615336 0.00657969 0.00972696 
-0.0768381 -0.00208285 -1.87507e-08 -0.0735715 -0.00793278 1.34484e-08 -0.0939485 0.014688 -0.000536289 
-0.0569181 -0.0354742 0.0313697 0.146426 -0.0935606 -0.0197694 0.14399 -0.129461 -0.00787755 
0.0454545 -0.0413451 -2.44438e-05 0.0471824 0.0171435 4.83852e-14 -0.0900578 -0.00959852 -5.43325e-14 
-0.111914 -0.00354925 7.20909e-14 -0.161398 -0.0770725 7.20901e-14 -0.058574 -0.00730733 -0.000323323 
-0.0421826 -0.0253447 0.000805228 -0.0851466 -0.002618 -9.92561e-06 -0.0650782 0.0088401 -0.00932577 
-0.00553725 0.0206598 0.00109124 0.00754891 -0.0271757 8.7163e-06 -0.0290752 -0.036131 2.42704e-05 
0.0173475 0.0159225 5.03447e-14 -0.00197788 -0.0446308 0.00169211 0.0780968 -0.0473809 -6.22331e-14 
0.00077309 -0.0302594 8.87996e-15 -0.0187491 -0.0600697 -6.22323e-14 -0.126031 -0.0593363 -4.64288e-14 
-0.157192 -0.0136455 2.46827e-14 -0.148054 -0.0183782 1.05248e-14 -0.106823 0.0111122 2.46819e-14 
-0.105508 -0.01838 0.0388851 -0.175737 -0.0782897 -0.0266221 -0.0625397 0.026894 0.00102557 
-0.0193988 0.00661507 0.00020957 -0.0268841 -0.0676815 0.00508988 -0.0101769 -0.028661 1.21107e-08 
-0.00650549 -0.0800413 -0.0233117 -0.000470675 -0.0483869 -0.0082241 0.00124618 -0.115068 -0.0221933 
0.136528 -0.0347491 -0.000633671 0.149271 -0.0267726 1.68859e-14 0.104207 -0.00480445 2.46819e-14 
0.145883 0.00230105 4.04847e-14 -0.101558 0.000887718 -7.80359e-14 -0.15203 -0.0216985 0.0157368 
-0.100483 -0.0911906 0.0171051 -0.0420364 -0.0717472 0.00665661 0.0126995 -0.0614915 0.003857 
-0.14483 -0.0706955 0.0454098 -0.033169 0.0365942 -0.0296817 0.180686 0.00401446 0.011499 
0.0206852 0.036451 0.00141698 0.08026 -0.0175491 -0.000795564 0.0855201 -0.00171472 -3.06277e-14 
0.136529 0.0295299 -5.43325e-14 0.141297 -0.0149811 -6.92355e-15 -0.0309345 -0.0172533 5.86589e-05 
-0.150963 -0.033468 -6.22331e-14 -0.0529713 0.015763 -1.27445e-09 0.00158349 -0.025408 -0.0012608 
-0.056532 0.00985187 -0.000100087 -0.0206048 0.0231532 0.000187108 -0.099834 0.0274831 0.00568618 
0.109049 -0.0477996 -0.109061 0.0439499 0.034958 0.0203782 0.0879359 0.0527641 0.0274494 
0.104529 -0.0218687 -0.0342268 0.101026 0.0110653 0.000372587 0.0982849 -0.0100751 -1.47819e-14 
0.106595 -0.0255988 9.40457e-16 -0.0234268 0.0286485 -1.08433e-05 -0.0666628 -0.00732578 3.26456e-14 
-0.0773208 -0.020173 4.16156e-14 0.0210833 -0.00951283 -0.013143 0.0293354 -0.0101876 0.00480971 
0.00964429 0.000839985 0.000653995 0.0411766 -0.0219749 -0.00738589 0.0323693 -0.0816384 0.000995662 
0.0200783 0.028173 -0.00941132 0.0950584 -0.0012185 0.000334765 0.0864112 -0.0411827 -1.65429e-05 