# vtk DataFile Version 4.0
Generated by LIGGGHTS
ASCII
DATASET POLYDATA
POINTS 1243 float
0.0647693 -0.15664 -0.495751 0.134798 -0.157585 -0.489466 -0.0405015 -0.149854 -0.483643 
0.0903308 -0.199186 -0.472664 -0.0828241 -0.150249 -0.447689 -0.0892449 -0.15066 -0.445441 
0.0240022 -0.148413 -0.442747 0.0747834 -0.147156 -0.441554 -0.0899489 -0.148869 -0.404829 
-0.0265666 -0.16657 -0.35923 -0.0353597 -0.148798 -0.355343 -0.113721 -0.139505 -0.344965 
0.00846368 -0.156911 -0.297629 -0.0504827 -0.130803 -0.289007 0.0457192 -0.143717 -0.285869 
0.0419705 -0.135004 -0.275476 0.0231525 -0.132323 -0.241192 -0.0257653 -0.127366 -0.228052 
0.104681 -0.133454 -0.195063 0.0745863 -0.133751 -0.188918 0.0953299 -0.128224 -0.189185 
0.0425124 -0.127958 -0.178321 0.106745 -0.125303 -0.175348 -0.0311031 -0.135369 -0.170712 
-0.113218 -0.132269 -0.16517 -0.0903644 -0.115246 -0.161934 0.0091983 -0.123362 -0.156692 
-0.0357797 -0.124467 -0.142819 0.100418 -0.123899 -0.134903 -0.101213 -0.13035 -0.127171 
-0.0307901 -0.122284 -0.107419 0.0394861 -0.118888 -0.100326 0.0948426 -0.129605 -0.0881635 
-0.0260172 -0.15442 -0.0767131 -0.0331765 -0.115662 -0.0729727 0.0243144 -0.115915 -0.0604709 
0.0815115 -0.115736 -0.0582546 0.0938 -0.111483 -0.0551207 -0.0882409 -0.113947 -0.0423162 
-0.0334605 -0.110827 -0.0362839 0.0305154 -0.112044 -0.0143546 0.0455106 -0.108709 -0.0138516 
-0.0541812 -0.10869 -0.0103606 0.00169991 -0.108662 -0.0119609 -0.00399642 -0.107754 -0.0038675 
-0.0881172 -0.106479 -0.00520639 -0.0455193 -0.105394 -0.00209044 0.00479785 -0.105963 0.000156136 
0.0338746 -0.107192 -0.00244742 0.00940165 -0.104656 0.00477451 -0.0837669 -0.103315 0.00869679 
-0.0627971 -0.100366 0.0114534 0.0146358 -0.102952 0.00958691 0.0175779 -0.103522 0.00881949 
-0.0762407 -0.0985709 0.0114983 -0.0180448 -0.0974266 0.0114983 0.0140721 -0.0971655 0.0114983 
0.0414157 -0.100069 0.0114976 -0.0309851 -0.0962118 0.0114983 -0.0276065 -0.0935861 0.0114983 
0.0942639 -0.0948112 0.0114983 -0.0910711 -0.0910385 0.0114983 -0.0644203 -0.0897003 0.0114983 
0.0174463 -0.0913537 0.0114983 -0.0861328 -0.0866883 0.0114983 -0.0794284 -0.0884645 0.0114983 
-0.0603917 -0.0893136 0.0114983 -0.0566809 -0.0875818 0.0114983 -0.0514491 -0.0892837 0.0114983 
-0.0460673 -0.0875382 0.0114983 -0.0224719 -0.0891284 0.0114983 0.0117741 -0.0867097 0.0114983 
0.0800452 -0.086628 0.0114983 -0.0955023 -0.0860271 0.0114983 -0.0800475 -0.0834483 0.0114983 
-0.0425411 -0.0849991 0.0114983 0.0347875 -0.083039 0.0114983 -0.082626 -0.0818919 0.0114984 
0.0156034 -0.079564 0.0114983 0.0571129 -0.0808015 0.0114983 -0.0262847 -0.0763428 0.0114983 
0.0182025 -0.0765154 0.0114983 0.0576551 -0.0769619 0.0114983 -0.0959358 -0.0754966 0.0114983 
-0.058691 -0.0727806 0.0114983 -0.0482607 -0.0724985 0.0114983 -0.00509909 -0.0743456 0.0114983 
0.00840496 -0.0739677 0.0114983 0.0183712 -0.0731724 0.0114984 0.0225299 -0.075551 0.0114983 
0.0422788 -0.0750771 0.0114983 0.0470251 -0.0746115 0.0114983 0.0700641 -0.0728615 0.0114983 
-0.0959885 -0.0706362 0.0114983 -0.0759287 -0.0707964 0.0114983 -0.0550329 -0.0695612 0.0114986 
0.00227596 -0.0691394 0.0114983 0.0169134 -0.0693204 0.0114983 0.035126 -0.0691246 0.0114983 
0.0473083 -0.0705828 0.0114983 -0.0947507 -0.0676501 0.0114983 -0.0540143 -0.0662589 0.0122638 
-0.0468571 -0.0652742 0.0114983 -0.0203399 -0.0680138 0.0114983 -0.012008 -0.0684827 0.0114983 
0.0144132 -0.0676441 0.0114983 0.0474143 -0.0656854 0.0114983 0.0897628 -0.0680627 0.0115124 
-0.0945378 -0.0645624 0.0114983 -0.0918657 -0.0630752 0.0114983 -0.0571946 -0.0618319 0.0114983 
0.0154201 -0.0647991 0.0114983 0.0166235 -0.0616014 0.0114983 0.0139121 -0.058338 0.0114983 
0.0222117 -0.0583107 0.0114983 0.0334182 -0.059822 0.0114983 0.053039 -0.0609494 0.0114983 
0.056148 -0.0603641 0.0114983 -0.00986984 -0.056675 0.0114983 -0.00221832 -0.0562047 0.0114983 
0.00200413 -0.0566608 0.0114983 0.0316935 -0.0573395 0.0115794 0.0364446 -0.0577957 0.0114983 
0.0587622 -0.0570634 0.0114983 0.095684 -0.0560086 0.0114983 -0.0907542 -0.0538348 0.0114983 
-0.0646292 -0.0538634 0.0114983 -0.0597357 -0.0515011 0.0114983 -0.0532014 -0.0521019 0.0114983 
-0.0124721 -0.0542228 0.0114983 0.00261708 -0.0520416 0.0114983 0.0203022 -0.0525168 0.0114983 
0.0233617 -0.0530341 0.0114983 0.0897524 -0.0518091 0.0114992 -0.0484006 -0.047703 0.0114983 
-0.0142393 -0.047491 0.0114983 -0.012115 -0.0508982 0.0114983 -0.00283286 -0.0509262 0.0114983 
-0.00507872 -0.0486215 0.0114983 1.66393e-06 -0.0499449 0.0114979 0.00410567 -0.0475163 0.0114983 
0.0321361 -0.0489685 0.0116074 0.0435201 -0.0493196 0.0114983 0.046673 -0.0486283 0.0114983 
0.0502942 -0.0498492 0.0114983 0.0540138 -0.0475613 0.0114983 0.0747324 -0.048381 0.0114983 
-0.0652 -0.0474267 0.0114983 -0.0166725 -0.0450625 0.0114983 -0.012394 -0.0449762 0.0114983 
-0.0041735 -0.0454968 0.0114983 -0.00159739 -0.0471372 0.0114983 0.00188125 -0.0450366 0.0114978 
0.0112034 -0.0444534 0.0114983 0.0139296 -0.0461619 0.0114985 0.023969 -0.0445831 0.0114983 
0.0374822 -0.045899 0.0114983 0.0742381 -0.0448094 0.0114983 0.0779445 -0.0440619 0.0114983 
0.086333 -0.0471326 0.0115008 -0.0900546 -0.0410835 0.0114983 -0.0759294 -0.0405392 0.0114983 
-0.0398976 -0.0405553 0.0114983 -0.036697 -0.0413069 0.0114983 -0.029931 -0.0426946 0.0114983 
-0.018747 -0.0421985 0.0114973 -0.0109355 -0.0414726 0.0114983 0.00397291 -0.0428866 0.0114984 
0.0157792 -0.0435967 0.0114983 0.013062 -0.0408896 0.0114983 0.0346167 -0.0412489 0.0114983 
0.0564366 -0.0413414 0.0114983 0.0812514 -0.0435352 0.0114983 0.0900292 -0.0429816 0.0114983 
-0.0443175 -0.0389739 0.0114983 -0.0349493 -0.0384308 0.0114983 -0.0296971 -0.0374377 0.0114983 
-0.00775861 -0.0393458 0.0114983 -0.00337746 -0.0378895 0.0114983 -0.000319717 -0.0377659 0.0114983 
0.0117085 -0.0371718 0.0114981 0.0162986 -0.0402196 0.0114983 0.0162956 -0.0372179 0.0114983 
0.0197063 -0.0394811 0.0114983 0.0959379 -0.0394066 0.0114983 -0.0475561 -0.034136 0.0114983 
-0.0445654 -0.034887 0.0114983 -0.0411963 -0.0364922 0.0114983 0.00190551 -0.0356417 0.0114983 
0.0111492 -0.034087 0.0114983 0.0140938 -0.0351793 0.0114983 0.0192129 -0.0365097 0.0114982 
0.026711 -0.0342946 0.0114983 0.039176 -0.0338692 0.0114983 0.0453431 -0.0337132 0.0114983 
0.049015 -0.0355287 0.0114983 0.0578973 -0.0369787 0.0114983 0.0647357 -0.036497 0.0114983 
0.0894267 -0.0356956 0.0114983 0.0956211 -0.0362569 0.0114983 -0.0958416 -0.0326017 0.0114983 
-0.0883478 -0.0299102 0.0114983 -0.0455917 -0.0311499 0.0114983 -0.0423123 -0.0324047 0.0114983 
-0.040407 -0.0300722 0.0114983 -0.0237855 -0.0312325 0.0114983 -0.0113185 -0.033003 0.0114983 
0.00370424 -0.0316132 0.012069 0.00645494 -0.0304872 0.0115029 0.00960061 -0.0309233 0.0115149 
0.0146922 -0.0322264 0.0114982 0.0176335 -0.0329142 0.0114967 0.0332476 -0.0328551 0.0114983 
0.042509 -0.0322287 0.0114983 0.0481347 -0.0324929 0.0114983 0.0537272 -0.0301691 0.0114983 
0.0624444 -0.0323703 0.0114984 0.0687942 -0.0316545 0.0114983 -0.087853 -0.0268219 0.0114983 
-0.0721173 -0.0294755 0.0114983 -0.0560925 -0.0281659 0.0114983 -0.0378701 -0.0274653 0.0114983 
-0.0174539 -0.029357 0.0115539 -0.0132538 -0.0287104 0.0114981 -0.0107915 -0.0267271 0.0114969 
0.0503091 -0.0295472 0.0114983 0.0487275 -0.0267103 0.0114983 -0.05831 -0.0249328 0.0114983 
-0.0536086 -0.0235011 0.0114983 -0.0480018 -0.0261127 0.0114983 -0.0265174 -0.0255746 0.0117285 
-0.0165874 -0.0251876 0.0114985 -0.0136116 -0.0257245 0.0114989 -0.00728265 -0.0240604 0.0114983 
0.0407769 -0.0254147 0.0115281 0.0510762 -0.0248373 0.0114983 0.0590402 -0.0243402 0.0114983 
-0.0678453 -0.0203809 0.0114983 -0.0488006 -0.0221407 0.0114983 -0.0243375 -0.021823 0.0115013 
-0.014708 -0.0203008 0.0116501 0.0033609 -0.0212382 0.0114983 0.0115694 -0.0216682 0.0115248 
0.0139094 -0.0195583 0.0114983 0.0201911 -0.0215674 0.0116669 0.0360634 -0.0210243 0.0114564 
0.0473384 -0.0228745 0.0114983 0.0829252 -0.0222224 0.0115116 0.0957612 -0.0215365 0.0114983 
-0.0957695 -0.0168233 0.0114983 -0.0842246 -0.0178656 0.0114983 -0.061907 -0.0169395 0.0114983 
-0.0554332 -0.0186685 0.0114983 -0.0444877 -0.018296 0.0114983 -0.0362649 -0.0172725 0.0114983 
-0.0305253 -0.0158752 0.0114986 -0.028754 -0.0188628 0.01153 -0.027368 -0.0159405 0.0114941 
-0.0238886 -0.0188276 0.0116014 -0.0174939 -0.0190542 0.0116404 -0.00913656 -0.0172954 0.0114983 
-0.00472623 -0.0187603 0.0114983 0.000282939 -0.0180702 0.0115696 0.0031004 -0.0169673 0.0114983 
0.0160961 -0.016658 0.0114983 0.0409947 -0.0164707 0.0114983 -0.0934166 -0.0147408 0.0114984 
-0.0959943 -0.0132062 0.0114982 -0.0906434 -0.013599 0.0114984 -0.0829687 -0.0132957 0.0114983 
-0.0782002 -0.0156623 0.0114983 -0.073833 -0.0138957 0.0114983 -0.0574179 -0.0150638 0.0114981 
-0.0545938 -0.0140052 0.0115243 -0.0474702 -0.0156888 0.0114983 -0.0443154 -0.0136336 0.0114983 
-0.0398511 -0.0138859 0.0114983 -0.0361214 -0.0138072 0.0114983 -0.025166 -0.0135758 0.0114984 
-0.0111276 -0.013111 0.0115206 -0.00681928 -0.0137117 0.0114939 0.00862696 -0.0135389 0.0114978 
0.0157934 -0.0126907 0.0116801 0.0199915 -0.0145409 0.0115078 0.0478084 -0.0150493 0.0114983 
0.0496956 -0.0124823 0.0114983 0.0758519 -0.0125398 0.0114983 -0.0903845 -0.0106039 0.0114983 
-0.086502 -0.00952905 0.0114983 -0.0762583 -0.00907497 0.0114989 -0.0711585 -0.00877358 0.0114983 
-0.044593 -0.00928767 0.0114983 -0.0359608 -0.0095301 0.0114983 -0.0278436 -0.0108131 0.0114978 
-0.0223511 -0.0107525 0.0114983 -0.0080983 -0.0102729 0.0114983 0.017167 -0.0098607 0.0114983 
0.0206882 -0.0110824 0.0115039 0.023615 -0.00888992 0.0114959 0.0358187 -0.00967125 0.0115828 
0.0487498 -0.00942785 0.0115504 0.0527015 -0.0112573 0.0114983 0.0874462 -0.0108643 0.0114983 
0.0954822 -0.00939702 0.0114983 -0.0887823 -0.00746216 0.0114983 -0.0789396 -0.00769195 0.0114984 
-0.0542499 -0.0080813 0.0114983 -0.0485307 -0.0075677 0.0114983 -0.0365001 -0.00589163 0.0114983 
-0.0142286 -0.00632976 0.0114961 -0.00537553 -0.0059258 0.0115163 0.00601806 -0.0064287 0.0114977 
[...]
POINT_DATA 1243
FIELD FieldData 7
id 1 1243 int
10 200 119 526 229 137 222 393 258 
406 267 252 514 73 76 173 68 83 
319 260 125 328 50 498 242 343 108 
375 132 290 307 110 144 862 168 529 
97 19 541 8 285 325 167 192 300 
353 18 333 418 458 261 283 475 101 
281 161 487 75 85 90 11 358 378 
588 591 409 32 152 268 371 523 263 
63 71 489 308 559 202 438 525 726 
433 550 179 314 240 546 214 729 615 
251 109 524 45 425 665 638 743 898 
139 47 1000 218 352 540 566 626 807 
107 205 502 339 496 123 587 784 785 
603 460 602 867 1041 922 643 23 598 
476 600 695 172 885 469 821 448 935 
782 744 666 120 694 127 835 599 968 
930 773 482 719 947 880 578 521 828 
571 612 611 340 753 500 630 211 197 
760 995 1067 962 830 72 755 809 443 
854 610 292 718 1061 1024 734 1020 185 
957 1066 677 535 249 320 843 879 857 
1009 998 669 728 847 849 767 681 560 
305 164 436 495 871 1049 1102 126 844 
733 380 459 294 679 278 816 798 705 
667 366 368 344 818 887 1028 1023 794 
1015 808 25 721 884 150 1036 701 704 
689 793 614 510 572 973 810 715 706 
456 1174 820 656 346 507 114 693 527 
795 997 970 499 653 1129 921 1052 912 
395 937 533 1035 279 153 217 174 84 
663 561 950 347 756 772 303 996 1063 
924 846 244 1001 288 988 574 585 64 
227 36 315 893 975 934 911 765 1050 
1078 1087 1126 834 861 355 295 501 651 
768 250 908 757 1080 986 1021 652 163 
690 562 538 257 411 201 74 239 412 
474 575 1047 919 831 974 983 938 592 
1064 910 946 882 739 302 384 771 949 
226 162 796 713 883 948 976 472 987 
1111 1027 447 484 899 1103 945 783 1037 
858 601 420 334 289 1089 745 918 961 
1138 703 275 1104 727 731 931 573 687 
253 624 625 944 1175 564 637 121 616 
960 897 759 579 369 548 210 204 553 
228 96 488 842 1141 730 511 869 860 
803 833 886 742 522 61 291 404 264 
407 873 845 532 707 537 1086 213 342 
329 577 432 316 1025 817 1116 969 1100 
1022 972 920 1153 485 539 1075 740 136 
280 819 933 936 627 293 1093 971 781 
360 563 545 758 165 199 836 332 895 
1010 552 642 982 1038 341 1014 872 296 
1013 1110 392 597 86 855 345 932 746 
497 1059 1079 1105 1074 586 419 678 668 
791 266 714 823 468 359 766 702 832 
655 33 178 604 985 754 963 1048 1062 
896 431 856 805 806 786 424 676 133 
277 779 822 230 190 558 1077 1051 1034 
892 640 1128 605 662 732 680 959 999 
1011 590 589 198 636 576 989 716 421 
907 925 565 958 717 309 276 868 231 
674 370 900 584 848 140 881 547 520 
1026 909 654 906 461 434 513 508 331 
792 720 894 613 629 692 471 691 549 
708 1002 675 408 450 688 534 618 866 
811 445 780 628 641 650 769 631 330 
422 171 186 151 486 430 483 859 804 
874 797 87 462 22 357 102 457 379 
38 383 435 318 551 649 49 304 255 
385 405 354 100 238 519 382 269 463 
270 536 70 166 124 381 437 317 470 
396 187 57 58 321 682 398 241 223 
149 191 870 21 664 148 159 111 423 
51 60 88 327 215 747 65 372 446 
449 95 62 34 306 177 237 20 256 
394 254 135 99 147 216 509 399 134 
410 122 176 212 138 203 13 7 224 
113 26 188 98 37 35 24 367 175 
225 46 39 184 301 634 92 348 481 
313 142 156 336 841 477 583 594 635 
464 413 506 494 365 42 528 581 467 
568 155 750 623 15 129 593 414 439 
595 710 389 543 1006 16 518 452 387 
812 737 235 219 1133 364 337 827 402 
40 877 14 787 984 953 284 67 157 
1057 863 801 248 442 698 825 141 723 
1147 1068 403 903 814 926 632 914 1044 
417 504 335 660 455 712 1098 851 1012 
923 1065 671 91 323 800 644 617 657 
1115 979 1030 927 966 709 916 415 29 
473 146 1191 850 444 170 1112 1201 736 
981 902 633 247 274 193 951 373 978 
376 207 3 181 131 465 391 954 1163 
1017 943 246 1131 1209 1200 878 955 1178 
1119 1118 1169 619 1055 115 351 286 1031 
1046 1039 1137 1101 648 326 1166 840 1156 
1083 686 79 94 429 683 557 1157 1124 
639 776 1056 991 1120 940 824 361 531 
158 1095 670 1096 582 1069 1154 1114 1008 
1117 749 724 441 1158 1179 1043 865 967 
1142 390 1212 839 661 517 362 696 684 
427 1090 672 789 1054 311 622 889 1155 
1139 596 992 1143 913 609 890 646 722 
1058 271 350 1060 777 838 1135 711 965 
1085 917 788 941 659 221 1040 183 876 
1018 1207 1042 1134 1113 764 1136 1151 180 
700 480 505 232 245 608 799 1149 27 
1130 606 1140 990 802 491 1070 451 41 
195 762 1076 829 1195 956 1097 852 1004 
492 512 298 117 567 81 1123 1127 647 
748 1045 763 544 952 66 1081 1091 236 
751 1016 466 1033 964 1125 580 388 915 
145 813 741 1084 1003 1148 1180 1019 5 
735 440 106 490 980 1032 901 864 1073 
685 752 775 338 555 645 143 1088 994 
928 516 209 530 699 837 259 17 697 
774 875 738 929 454 1007 891 673 55 
570 853 620 939 607 621 542 1053 815 
426 169 493 322 116 377 761 53 220 
778 904 287 54 43 103 515 790 428 
478 349 310 273 942 272 826 93 299 
658 128 400 196 888 725 233 556 569 
69 80 312 297 453 130 374 44 401 
182 479 554 194 28 1 118 234 56 
104 78 503 31 1071 1106 1206 1187 1109 
1208 1183 1204 1193 1161 977 1145 1217 1219 
1146 1194 1196 1215 1122 1185 1165 1152 1121 
1188 1092 1186 1144 1197 993 1082 1189 1173 
1218 1099 1177 1220 1108 1168 1190 1198 1171 
905 1213 1214 1094 1029 1164 1167 1176 1005 
1107 1072 1184 1202 770 1181 1226 1199 1205 
1132 1216 1172 1211 1160 1182 1150 1210 1192 
1229 1170 1225 1162 1232 1224 1228 1231 1222 
1203 1233 1223 1227 1243 1230 1221 1241 1240 
1236 1237 1234 1235 1159 1245 1239 1238 1242 
1244 1246 1257 1255 1247 1250 1259 1254 1256 
1248 1249 1252 1258 1251 1253 1263 1270 1268 
1272 1267 1265 1264 1271 1261 1260 1269 1266 
1262 
type 1 1243 int
1 1 1 1 1 1 1 1 1 
1 1 1 1 1 1 1 1 1 
1 1 1 1 1 1 1 1 1 
1 1 1 1 1 1 1 1 1 
1 1 1 1 1 1 1 1 1 
1 1 1 1 1 1 1 1 1 
1 1 1 1 1 1 1 1 1 
1 1 1 1 1 1 1 1 1 
1 1 1 1 1 1 1 1 1 
1 1 1 1 1 1 1 1 1 
1 1 1 1 1 1 1 1 1 
1 1 1 1 1 1 1 1 1 
1 1 1 1 1 1 1 1 1 
1 1 1 1 1 1 1 1 1 
1 1 1 1 1 1 1 1 1 
1 1 1 1 1 1 1 1 1 
1 1 1 1 1 1 1 1 1 
1 1 1 1 1 1 1 1 1 
1 1 1 1 1 1 1 1 1 
1 1 1 1 1 1 1 1 1 
1 1 1 1 1 1 1 1 1 
1 1 1 1 1 1 1 1 1 
1 1 1 1 1 1 1 1 1 
1 1 1 1 1 1 1 1 1 
1 1 1 1 1 1 1 1 1 
1 1 1 1 1 1 1 1 1 
1 1 1 1 1 1 1 1 1 
1 1 1 1 1 1 1 1 1 
1 1 1 1 1 1 1 1 1 
1 1 1 1 1 1 1 1 1 
1 1 1 1 1 1 1 1 1 
1 1 1 1 1 1 1 1 1 
1 1 1 1 1 1 1 1 1 
1 1 1 1 1 1 1 1 1 
1 1 1 1 1 1 1 1 1 
1 1 1 1 1 1 1 1 1 
1 1 1 1 1 1 1 1 1 
1 1 1 1 1 1 1 1 1 
1 1 1 1 1 1 1 1 1 
1 1 1 1 1 1 1 1 1 
1 1 1 1 1 1 1 1 1 
1 1 1 1 1 1 1 1 1 
1 1 1 1 1 1 1 1 1 
1 1 1 1 1 1 1 1 1 
1 1 1 1 1 1 1 1 1 
1 1 1 1 1 1 1 1 1 
1 1 1 1 1 1 1 1 1 
1 1 1 1 1 1 1 1 1 
1 1 1 1 1 1 1 1 1 
1 1 1 1 1 1 1 1 1 
1 1 1 1 1 1 1 1 1 
1 1 1 1 1 1 1 1 1 
1 1 1 1 1 1 1 1 1 
1 1 1 1 1 1 1 1 1 
1 1 1 1 1 1 1 1 1 
1 1 1 1 1 1 1 1 1 
1 1 1 1 1 1 1 1 1 
1 1 1 1 1 1 1 1 1 
1 1 1 1 1 1 1 1 1 
1 1 1 1 1 1 1 1 1 
1 1 1 1 1 1 1 1 1 
1 1 1 1 1 1 1 1 1 
1 1 1 1 1 1 1 1 1 
1 1 1 1 1 1 1 1 1 
1 1 1 1 1 1 1 1 1 
1 1 1 1 1 1 1 1 1 
1 1 1 1 1 1 1 1 1 
1 1 1 1 1 1 1 1 1 
1 1 1 1 1 1 1 1 1 
1 1 1 1 1 1 1 1 1 
1 1 1 1 1 1 1 1 1 
1 1 1 1 1 1 1 1 1 
1 1 1 1 1 1 1 1 1 
1 1 1 1 1 1 1 1 1 
1 1 1 1 1 1 1 1 1 
1 1 1 1 1 1 1 1 1 
1 1 1 1 1 1 1 1 1 
1 1 1 1 1 1 1 1 1 
1 1 1 1 1 1 1 1 1 
1 1 1 1 1 1 1 1 1 
1 1 1 1 1 1 1 1 1 
1 1 1 1 1 1 1 1 1 
1 1 1 1 1 1 1 1 1 
1 1 1 1 1 1 1 1 1 
1 1 1 1 1 1 1 1 1 
1 1 1 1 1 1 1 1 1 
1 1 1 1 1 1 1 1 1 
1 1 1 1 1 1 1 1 1 
1 1 1 1 1 1 1 1 1 
1 1 1 1 1 1 1 1 1 
1 1 1 1 1 1 1 1 1 
1 1 1 1 1 1 1 1 1 
1 1 1 1 1 1 1 1 1 
1 1 1 1 1 1 1 1 1 
1 1 1 1 1 1 1 1 1 
1 1 1 1 1 1 1 1 1 
1 1 1 1 1 1 1 1 1 
1 1 1 1 1 1 1 1 1 
1 1 1 1 1 1 1 1 1 
1 1 1 1 1 1 1 1 1 
1 1 1 1 1 1 1 1 1 
1 1 1 1 1 1 1 1 1 
1 1 1 1 1 1 1 1 1 
1 1 1 1 1 1 1 1 1 
1 1 1 1 1 1 1 1 1 
1 1 1 1 1 1 1 1 1 
1 1 1 1 1 1 1 1 1 
1 1 1 1 1 1 1 1 1 
1 1 1 1 1 1 1 1 1 
1 1 1 1 1 1 1 1 1 
1 1 1 1 1 1 1 1 1 
1 1 1 1 1 1 1 1 1 
1 1 1 1 1 1 1 1 1 
1 1 1 1 1 1 1 1 1 
1 1 1 1 1 1 1 1 1 
1 1 1 1 1 1 1 1 1 
1 1 1 1 1 1 1 1 1 
1 1 1 1 1 1 1 1 1 
1 1 1 1 1 1 1 1 1 
1 1 1 1 1 1 1 1 1 
1 1 1 1 1 1 1 1 1 
1 1 1 1 1 1 1 1 1 
1 1 1 1 1 1 1 1 1 
1 1 1 1 1 1 1 1 1 
1 1 1 1 1 1 1 1 1 
1 1 1 1 1 1 1 1 1 
1 1 1 1 1 1 1 1 1 
1 1 1 1 1 1 1 1 1 
1 1 1 1 1 1 1 1 1 
1 1 1 1 1 1 1 1 1 
1 1 1 1 1 1 1 1 1 
1 1 1 1 1 1 1 1 1 
1 1 1 1 1 1 1 1 1 
1 1 1 1 1 1 1 1 1 
1 1 1 1 1 1 1 1 1 
1 1 1 1 1 1 1 1 1 
1 1 1 1 1 1 1 1 1 
1 1 1 1 1 1 1 1 1 
1 
i 3 1243 int
0 0 0 0 0 0 0 0 0 
0 0 0 0 0 0 0 0 0 
0 0 0 0 0 0 0 0 0 
0 0 0 0 0 0 0 0 0 
0 0 0 0 0 0 0 0 0 
0 0 0 0 0 0 0 0 0 
0 0 0 0 0 0 0 0 0 
0 0 0 0 0 0 0 0 0 
0 0 0 0 0 0 0 0 0 
0 0 0 0 0 0 0 0 0 
0 0 0 0 0 0 0 0 0 
0 0 0 0 0 0 0 0 0 
0 0 0 0 0 0 0 0 0 
0 0 0 0 0 0 0 0 0 
0 0 0 0 0 0 0 0 0 
0 0 0 0 0 0 0 0 0 
0 0 0 0 0 0 0 0 0 
0 0 0 0 0 0 0 0 0 
0 0 0 0 0 0 0 0 0 
0 0 0 0 0 0 0 0 0 
0 0 0 0 0 0 0 0 0 
0 0 0 0 0 0 0 0 0 
0 0 0 0 0 0 0 0 0 
0 0 0 0 0 0 0 0 0 
0 0 0 0 0 0 0 0 0 
0 0 0 0 0 0 0 0 0 
0 0 0 0 0 0 0 0 0 
0 0 0 0 0 0 0 0 0 
0 0 0 0 0 0 0 0 0 
0 0 0 0 0 0 0 0 0 
0 0 0 0 0 0 0 0 0 
0 0 0 0 0 0 0 0 0 
0 0 0 0 0 0 0 0 0 
0 0 0 0 0 0 0 0 0 
0 0 0 0 0 0 0 0 0 
0 0 0 0 0 0 0 0 0 
0 0 0 0 0 0 0 0 0 
0 0 0 0 0 0 0 0 0 
0 0 0 0 0 0 0 0 0 
0 0 0 0 0 0 0 0 0 
0 0 0 0 0 0 0 0 0 
0 0 0 0 0 0 0 0 0 
0 0 0 0 0 0 0 0 0 
0 0 0 0 0 0 0 0 0 
0 0 0 0 0 0 0 0 0 
0 0 0 0 0 0 0 0 0 
0 0 0 0 0 0 0 0 0 
0 0 0 0 0 0 0 0 0 
0 0 0 0 0 0 0 0 0 
0 0 0 0 0 0 0 0 0 
0 0 0 0 0 0 0 0 0 
0 0 0 0 0 0 0 0 0 
0 0 0 0 0 0 0 0 0 
0 0 0 0 0 0 0 0 0 
0 0 0 0 0 0 0 0 0 
0 0 0 0 0 0 0 0 0 
0 0 0 0 0 0 0 0 0 
0 0 0 0 0 0 0 0 0 
0 0 0 0 0 0 0 0 0 
0 0 0 0 0 0 0 0 0 
0 0 0 0 0 0 0 0 0 
0 0 0 0 0 0 0 0 0 
0 0 0 0 0 0 0 0 0 
0 0 0 0 0 0 0 0 0 
0 0 0 0 0 0 0 0 0 
0 0 0 0 0 0 0 0 0 
0 0 0 0 0 0 0 0 0 
0 0 0 0 0 0 0 0 0 
0 0 0 0 0 0 0 0 0 
0 0 0 0 0 0 0 0 0 
0 0 0 0 0 0 0 0 0 
0 0 0 0 0 0 0 0 0 
0 0 0 0 0 0 0 0 0 
0 0 0 0 0 0 0 0 0 
0 0 0 0 0 0 0 0 0 
0 0 0 0 0 0 0 0 0 
0 0 0 0 0 0 0 0 0 
0 0 0 0 0 0 0 0 0 
0 0 0 0 0 0 0 0 0 
0 0 0 0 0 0 0 0 0 
0 0 0 0 0 0 0 0 0 
0 0 0 0 0 0 0 0 0 
0 0 0 0 0 0 0 0 0 
0 0 0 0 0 0 0 0 0 
0 0 0 0 0 0 0 0 0 
0 0 0 0 0 0 0 0 0 
0 0 0 0 0 0 0 0 0 
0 0 0 0 0 0 0 0 0 
0 0 0 0 0 0 0 0 0 
0 0 0 0 0 0 0 0 0 
0 0 0 0 0 0 0 0 0 
0 0 0 0 0 0 0 0 0 
0 0 0 0 0 0 0 0 0 
0 0 0 0 0 0 0 0 0 
0 0 0 0 0 0 0 0 0 
0 0 0 0 0 0 0 0 0 
0 0 0 0 0 0 0 0 0 
0 0 0 0 0 0 0 0 0 
0 0 0 0 0 0 0 0 0 
0 0 0 0 0 0 0 0 0 
0 0 0 0 0 0 0 0 0 
0 0 0 0 0 0 0 0 0 
0 0 0 0 0 0 0 0 0 
0 0 0 0 0 0 0 0 0 
0 0 0 0 0 0 0 0 0 
0 0 0 0 0 0 0 0 0 
0 0 0 0 0 0 0 0 0 
0 0 0 0 0 0 0 0 0 
0 0 0 0 0 0 0 0 0 
0 0 0 0 0 0 0 0 0 
0 0 0 0 0 0 0 0 0 
0 0 0 0 0 0 0 0 0 
0 0 0 0 0 0 0 0 0 
0 0 0 0 0 0 0 0 0 
0 0 0 0 0 0 0 0 0 
0 0 0 0 0 0 0 0 0 
0 0 0 0 0 0 0 0 0 
0 0 0 0 0 0 0 0 0 
0 0 0 0 0 0 0 0 0 
0 0 0 0 0 0 0 0 0 
0 0 0 0 0 0 0 0 0 
0 0 0 0 0 0 0 0 0 
0 0 0 0 0 0 0 0 0 
0 0 0 0 0 0 0 0 0 
0 0 0 0 0 0 0 0 0 
0 0 0 0 0 0 0 0 0 
0 0 0 0 0 0 0 0 0 
0 0 0 0 0 0 0 0 0 
0 0 0 0 0 0 0 0 0 
0 0 0 0 0 0 0 0 0 
0 0 0 0 0 0 0 0 0 
0 0 0 0 0 0 0 0 0 
0 0 0 0 0 0 0 0 0 
0 0 0 0 0 0 0 0 0 
0 0 0 0 0 0 0 0 0 
0 0 0 0 0 0 0 0 0 
0 0 0 0 0 0 0 0 0 
0 0 0 0 0 0 0 0 0 
0 0 0 0 0 0 0 0 0 
0 0 0 0 0 0 0 0 0 
0 0 0 0 0 0 0 0 0 
0 0 0 0 0 0 0 0 0 
0 0 0 0 0 0 0 0 0 
0 0 0 0 0 0 0 0 0 
0 0 0 0 0 0 0 0 0 
0 0 0 0 0 0 0 0 0 
0 0 0 0 0 0 0 0 0 
0 0 0 0 0 0 0 0 0 
0 0 0 0 0 0 0 0 0 
0 0 0 0 0 0 0 0 0 
0 0 0 0 0 0 0 0 0 
0 0 0 0 0 0 0 0 0 
0 0 0 0 0 0 0 0 0 
0 0 0 0 0 0 0 0 0 
0 0 0 0 0 0 0 0 0 
0 0 0 0 0 0 0 0 0 
0 0 0 0 0 0 0 0 0 
0 0 0 0 0 0 0 0 0 
0 0 0 0 0 0 0 0 0 
0 0 0 0 0 0 0 0 0 
0 0 0 0 0 0 0 0 0 
0 0 0 0 0 0 0 0 0 
0 0 0 0 0 0 0 0 0 
0 0 0 0 0 0 0 0 0 
0 0 0 0 0 0 0 0 0 
0 0 0 0 0 0 0 0 0 
0 0 0 0 0 0 0 0 0 
0 0 0 0 0 0 0 0 0 
0 0 0 0 0 0 0 0 0 
0 0 0 0 0 0 0 0 0 
0 0 0 0 0 0 0 0 0 
0 0 0 0 0 0 0 0 0 
0 0 0 0 0 0 0 0 0 
0 0 0 0 0 0 0 0 0 
0 0 0 0 0 0 0 0 0 
0 0 0 0 0 0 0 0 0 
0 0 0 0 0 0 0 0 0 
0 0 0 0 0 0 0 0 0 
0 0 0 0 0 0 0 0 0 
0 0 0 0 0 0 0 0 0 
0 0 0 0 0 0 0 0 0 
0 0 0 0 0 0 0 0 0 
0 0 0 0 0 0 0 0 0 
0 0 0 0 0 0 0 0 0 
0 0 0 0 0 0 0 0 0 
0 0 0 0 0 0 0 0 0 
0 0 0 0 0 0 0 0 0 
0 0 0 0 0 0 0 0 0 
0 0 0 0 0 0 0 0 0 
0 0 0 0 0 0 0 0 0 
0 0 0 0 0 0 0 0 0 
0 0 0 0 0 0 0 0 0 
0 0 0 0 0 0 0 0 0 
0 0 0 0 0 0 0 0 0 
0 0 0 0 0 0 0 0 0 
0 0 0 0 0 0 0 0 0 
0 0 0 0 0 0 0 0 0 
0 0 0 0 0 0 0 0 0 
0 0 0 0 0 0 0 0 0 
0 0 0 0 0 0 0 0 0 
0 0 0 0 0 0 0 0 0 
0 0 0 0 0 0 0 0 0 
0 0 0 0 0 0 0 0 0 
0 0 0 0 0 0 0 0 0 
0 0 0 0 0 0 0 0 0 
0 0 0 0 0 0 0 0 0 
0 0 0 0 0 0 0 0 0 
0 0 0 0 0 0 0 0 0 
0 0 0 0 0 0 0 0 0 
0 0 0 0 0 0 0 0 0 
0 0 0 0 0 0 0 0 0 
0 0 0 0 0 0 0 0 0 
0 0 0 0 0 0 0 0 0 
0 0 0 0 0 0 0 0 0 
0 0 0 0 0 0 0 0 0 
0 0 0 0 0 0 0 0 0 
0 0 0 0 0 0 0 0 0 
0 0 0 0 0 0 0 0 0 
0 0 0 0 0 0 0 0 0 
0 0 0 0 0 0 0 0 0 
0 0 0 0 0 0 0 0 0 
0 0 0 0 0 0 0 0 0 
0 0 0 0 0 0 0 0 0 
0 0 0 0 0 0 0 0 0 
0 0 0 0 0 0 0 0 0 
0 0 0 0 0 0 0 0 0 
0 0 0 0 0 0 0 0 0 
0 0 0 0 0 0 0 0 0 
0 0 0 0 0 0 0 0 0 
0 0 0 0 0 0 0 0 0 
0 0 0 0 0 0 0 0 0 
0 0 0 0 0 0 0 0 0 
0 0 0 0 0 0 0 0 0 
0 0 0 0 0 0 0 0 0 
0 0 0 0 0 0 0 0 0 
0 0 0 0 0 0 0 0 0 
0 0 0 0 0 0 0 0 0 
0 0 0 0 0 0 0 0 0 
0 0 0 0 0 0 0 0 0 
0 0 0 0 0 0 0 0 0 
0 0 0 0 0 0 0 0 0 
0 0 0 0 0 0 0 0 0 
0 0 0 0 0 0 0 0 0 
0 0 0 0 0 0 0 0 0 
0 0 0 0 0 0 0 0 0 
0 0 0 0 0 0 0 0 0 
0 0 0 0 0 0 0 0 0 
0 0 0 0 0 0 0 0 0 
0 0 0 0 0 0 0 0 0 
0 0 0 0 0 0 0 0 0 
0 0 0 0 0 0 0 0 0 
0 0 0 0 0 0 0 0 0 
0 0 0 0 0 0 0 0 0 
0 0 0 0 0 0 0 0 0 
0 0 0 0 0 0 0 0 0 
0 0 0 0 0 0 0 0 0 
0 0 0 0 0 0 0 0 0 
0 0 0 0 0 0 0 0 0 
0 0 0 0 0 0 0 0 0 
0 0 0 0 0 0 0 0 0 
0 0 0 0 0 0 0 0 0 
0 0 0 0 0 0 0 0 0 
0 0 0 0 0 0 0 0 0 
0 0 0 0 0 0 0 0 0 
0 0 0 0 0 0 0 0 0 
0 0 0 0 0 0 0 0 0 
0 0 0 0 0 0 0 0 0 
0 0 0 0 0 0 0 0 0 
0 0 0 0 0 0 0 0 0 
0 0 0 0 0 0 0 0 0 
0 0 0 0 0 0 0 0 0 
0 0 0 0 0 0 0 0 0 
0 0 0 0 0 0 0 0 0 
0 0 0 0 0 0 0 0 0 
0 0 0 0 0 0 0 0 0 
0 0 0 0 0 0 0 0 0 
0 0 0 0 0 0 0 0 0 
0 0 0 0 0 0 0 0 0 
0 0 0 0 0 0 0 0 0 
0 0 0 0 0 0 0 0 0 
0 0 0 0 0 0 0 0 0 
0 0 0 0 0 0 0 0 0 
0 0 0 0 0 0 0 0 0 
0 0 0 0 0 0 0 0 0 
0 0 0 0 0 0 0 0 0 
0 0 0 0 0 0 0 0 0 
0 0 0 0 0 0 0 0 0 
0 0 0 0 0 0 0 0 0 
0 0 0 0 0 0 0 0 0 
0 0 0 0 0 0 0 0 0 
0 0 0 0 0 0 0 0 0 
0 0 0 0 0 0 0 0 0 
0 0 0 0 0 0 0 0 0 
0 0 0 0 0 0 0 0 0 
0 0 0 0 0 0 0 0 0 
0 0 0 0 0 0 0 0 0 
0 0 0 0 0 0 0 0 0 
0 0 0 0 0 0 0 0 0 
0 0 0 0 0 0 0 0 0 
0 0 0 0 0 0 0 0 0 
0 0 0 0 0 0 0 0 0 
0 0 0 0 0 0 0 0 0 
0 0 0 0 0 0 0 0 0 
0 0 0 0 0 0 0 0 0 
0 0 0 0 0 0 0 0 0 
0 0 0 0 0 0 0 0 0 
0 0 0 0 0 0 0 0 0 
0 0 0 0 0 0 0 0 0 
0 0 0 0 0 0 0 0 0 
0 0 0 0 0 0 0 0 0 
0 0 0 0 0 0 0 0 0 
0 0 0 0 0 0 0 0 0 
0 0 0 0 0 0 0 0 0 
0 0 0 0 0 0 0 0 0 
0 0 0 0 0 0 0 0 0 
0 0 0 0 0 0 0 0 0 
0 0 0 0 0 0 0 0 0 
0 0 0 0 0 0 0 0 0 
0 0 0 0 0 0 0 0 0 
0 0 0 0 0 0 0 0 0 
0 0 0 0 0 0 0 0 0 
0 0 0 0 0 0 0 0 0 
0 0 0 0 0 0 0 0 0 
0 0 0 0 0 0 0 0 0 
0 0 0 0 0 0 0 0 0 
0 0 0 0 0 0 0 0 0 
0 0 0 0 0 0 0 0 0 
0 0 0 0 0 0 0 0 0 
0 0 0 0 0 0 0 0 0 
0 0 0 0 0 0 0 0 0 
0 0 0 0 0 0 0 0 0 
0 0 0 0 0 0 0 0 0 
0 0 0 0 0 0 0 0 0 
0 0 0 0 0 0 0 0 0 
0 0 0 0 0 0 0 0 0 
0 0 0 0 0 0 0 0 0 
0 0 0 0 0 0 0 0 0 
0 0 0 0 0 0 0 0 0 
0 0 0 0 0 0 0 0 0 
0 0 0 0 0 0 0 0 0 
0 0 0 0 0 0 0 0 0 
0 0 0 0 0 0 0 0 0 
0 0 0 0 0 0 0 0 0 
0 0 0 0 0 0 0 0 0 
0 0 0 0 0 0 0 0 0 
0 0 0 0 0 0 0 0 0 
0 0 0 0 0 0 0 0 0 
0 0 0 0 0 0 0 0 0 
0 0 0 0 0 0 0 0 0 
0 0 0 0 0 0 0 0 0 
0 0 0 0 0 0 0 0 0 
0 0 0 0 0 0 0 0 0 
0 0 0 0 0 0 0 0 0 
0 0 0 0 0 0 0 0 0 
0 0 0 0 0 0 0 0 0 
0 0 0 0 0 0 0 0 0 
0 0 0 0 0 0 0 0 0 
0 0 0 0 0 0 0 0 0 
0 0 0 0 0 0 0 0 0 
0 0 0 0 0 0 0 0 0 
0 0 0 0 0 0 0 0 0 
0 0 0 0 0 0 0 0 0 
0 0 0 0 0 0 0 0 0 
0 0 0 0 0 0 0 0 0 
0 0 0 0 0 0 0 0 0 
0 0 0 0 0 0 0 0 0 
0 0 0 0 0 0 0 0 0 
0 0 0 0 0 0 0 0 0 
0 0 0 0 0 0 0 0 0 
0 0 0 0 0 0 0 0 0 
0 0 0 0 0 0 0 0 0 
0 0 0 0 0 0 0 0 0 
0 0 0 0 0 0 0 0 0 
0 0 0 0 0 0 0 0 0 
0 0 0 0 0 0 0 0 0 
0 0 0 0 0 0 0 0 0 
0 0 0 0 0 0 0 0 0 
0 0 0 0 0 0 0 0 0 
0 0 0 0 0 0 0 0 0 
0 0 0 0 0 0 0 0 0 
0 0 0 0 0 0 0 0 0 
0 0 0 0 0 0 0 0 0 
0 0 0 0 0 0 0 0 0 
0 0 0 0 0 0 0 0 0 
0 0 0 0 0 0 0 0 0 
0 0 0 0 0 0 0 0 0 
0 0 0 0 0 0 0 0 0 
0 0 0 0 0 0 0 0 0 
0 0 0 0 0 0 0 0 0 
0 0 0 0 0 0 0 0 0 
0 0 0 0 0 0 0 0 0 
0 0 0 0 0 0 0 0 0 
0 0 0 0 0 0 0 0 0 
0 0 0 0 0 0 0 0 0 
0 0 0 0 0 0 0 0 0 
0 0 0 0 0 0 0 0 0 
0 0 0 0 0 0 0 0 0 
0 0 0 0 0 0 0 0 0 
0 0 0 0 0 0 0 0 0 
0 0 0 0 0 0 0 0 0 
0 0 0 0 0 0 0 0 0 
0 0 0 0 0 0 0 0 0 
0 0 0 0 0 0 0 0 0 
0 0 0 0 0 0 0 0 0 
0 0 0 0 0 0 0 0 0 
0 0 0 0 0 0 0 0 0 
0 0 0 0 0 0 0 0 0 
0 0 0 0 0 0 0 0 0 
0 0 0 0 0 0 0 0 0 
0 0 0 0 0 0 0 0 0 
0 0 0 0 0 0 0 0 0 
0 0 0 0 0 0 0 0 0 
0 0 0 0 0 0 0 0 0 
0 0 0 0 0 0 0 0 0 
0 0 0 
v 3 1243 double
0.0664469 -0.176129 -3.15472 0.190098 -0.180191 -3.13511 -0.0499472 -0.156625 -3.11998 
-0.0166739 -0.315829 -3.08209 -0.0885939 -0.164217 -3.00154 0.0191592 -0.165968 -2.99419 
0.0315197 -0.158784 -2.98863 0.076366 -0.155137 -2.98142 -0.0972053 -0.167425 -2.86146 
-0.0765058 -0.242214 -2.69698 -0.0714214 -0.178438 -2.6828 -0.116153 -0.146507 -2.64458 
-0.00766658 -0.226757 -2.46274 -0.0586615 -0.124371 -2.42815 0.038162 -0.177553 -2.41544 
0.0413018 -0.144672 -2.37285 0.0287728 -0.141615 -2.23094 -0.0125736 -0.123743 -2.16794 
0.126354 -0.162996 -2.01314 0.0751019 -0.166385 -1.9879 -0.00169053 -0.13947 -1.98429 
0.0429247 -0.142061 -1.92983 0.115409 -0.129555 -1.91466 -0.0362661 -0.183518 -1.89076 
-0.145934 -0.170018 -1.86178 0.0120231 -0.078786 -1.84396 -0.0252108 -0.126062 -1.81656 
-0.0193264 -0.136528 -1.7455 0.0986936 -0.136895 -1.70044 -0.110333 -0.180511 -1.64945 
-0.0475445 -0.143046 -1.52747 0.0252151 -0.124966 -1.48122 0.0370479 -0.20658 -1.40533 
-0.0155696 -0.504676 -1.36085 -0.0369728 -0.114977 -1.29403 -0.0136227 -0.128171 -1.19605 
0.0746254 -0.131823 -1.16985 -0.00191284 -0.096842 -1.14291 0.0207301 -0.129436 -1.03655 
-0.0324996 -0.10896 -0.968144 0.0607961 -0.162277 -0.725826 0.0351854 -0.111586 -0.717026 
-0.0430573 -0.12192 -0.668438 0.00984052 -0.12497 -0.678435 0.00893556 -0.129874 -0.565774 
0.0281771 -0.109908 -0.572356 -0.0484445 -0.0993358 -0.515715 0.00203789 -0.123586 -0.47174 
0.0483707 -0.134603 -0.523088 0.00640367 -0.125249 -0.363217 0.0116118 -0.0873151 -0.260127 
0.0714783 -0.0666504 -0.016734 0.0126107 -0.149087 -0.19367 0.0117523 -0.150309 -0.229271 
-0.0854144 -0.108063 6.41895e-14 0.00210227 -0.0996632 -6.22331e-14 -0.00783765 -0.135264 9.77825e-16 
0.0185112 -0.0994567 -0.00327013 -0.0189904 -0.160982 1.67798e-14 -0.0182229 -0.0836891 -3.85298e-14 
0.0819189 -0.0980738 -7.80359e-14 0.0154208 -0.116511 -3.06269e-14 -0.0475828 -0.0994101 -1.48241e-14 
0.0318518 -0.116091 -5.43325e-14 -0.00795638 -0.00550001 7.99923e-14 -0.079998 -0.0892408 -1.48249e-14 
-0.0668285 -0.0977167 7.99923e-14 -0.0956537 -0.102347 -7.80359e-14 -0.0515001 -0.0874587 5.62866e-14 
-0.0562637 -0.0945987 -4.64288e-14 -0.00110659 -0.119903 4.04847e-14 0.0305597 -0.126481 9.78598e-16 
0.110911 -0.113573 7.99923e-14 0.00579569 -0.0670813 8.87919e-15 -0.0854638 -0.0660119 7.49492e-05 
-0.0995482 -0.0949982 -7.80351e-14 0.0341431 -0.122185 4.04847e-14 -0.0959881 -0.0762811 -7.52897e-05 
0.00877337 -0.106933 7.20901e-14 0.0552295 -0.13358 -6.92278e-15 -0.0233147 -0.119387 -7.80351e-14 
0.00434002 -0.0734837 -7.80359e-14 0.0627175 -0.112646 -2.05649e-11 0.000489823 -0.0422374 -2.27271e-14 
-0.0879254 -0.0759984 -6.92355e-15 -0.0627363 -0.0758546 -3.06277e-14 -0.00422115 -0.0905514 2.46819e-14 
0.00757544 -0.0979032 -6.22323e-14 0.0098067 -0.0901692 -0.000182823 0.00195003 -0.12868 -1.48249e-14 
0.0420808 -0.0568284 -1.48249e-14 0.0920351 -0.089485 -1.48249e-14 0.143843 -0.149877 8.87995e-15 
0.000443947 -0.0256043 -7.01337e-14 -0.0913023 -0.0697295 8.87996e-15 -0.110707 -0.139753 0.000236839 
0.000340462 -0.0746949 -7.80307e-14 0.00124828 -0.0723507 2.27324e-08 0.0349812 -0.201011 7.99915e-14 
0.0469337 -0.124083 -2.27271e-14 0.00598927 -0.0312613 4.2716e-13 -0.153733 -0.103665 0.0246274 
-0.0464171 -0.0530467 -7.01337e-14 -0.0109357 -0.0812788 9.77811e-16 -0.0356451 -0.0491298 8.87919e-15 
-0.00729728 -0.0828941 -6.7735e-10 0.0672502 -0.0978643 -3.85298e-14 -0.0368904 -0.0994101 -0.00949941 
0.00544129 -0.0268613 1.4929e-12 0.00163208 -0.0436448 7.20901e-14 -0.102855 -0.0665314 -6.92277e-15 
0.0110055 -0.0871129 -2.8904e-10 0.0212673 -0.0955736 -3.85298e-14 -0.00704965 -0.0921789 -6.22331e-14 
0.0380624 -0.0857055 -7.01345e-14 0.0139196 -0.172047 -2.08555e-09 0.0656801 -0.130847 -7.80359e-14 
0.0686457 -0.116922 7.20901e-14 -0.0111826 -0.0592439 -2.27263e-14 -0.0403854 -0.0577625 -6.22323e-14 
-0.0357911 -0.0256222 2.46819e-14 0.0252585 -0.174803 -0.0136105 0.013262 -0.0563429 -3.45072e-10 
0.101083 -0.152661 -1.48249e-14 -0.00620483 -0.0115841 -1.48249e-14 0.00246538 0.0134433 -3.85298e-14 