# vtk DataFile Version 4.0
Generated by LIGGGHTS
ASCII
DATASET POLYDATA
POINTS 618 float
-0.0721767 -0.210736 -0.250903 -0.0195563 -0.135476 -0.0338008 -0.0568413 -0.134136 -0.0354449 
-0.0667325 -0.131368 -0.0258857 -0.0340931 -0.120301 -0.00343666 -0.0167989 -0.112611 -0.00433267 
0.0925143 -0.107811 0.000659587 -0.0437167 -0.112053 0.0026827 0.0505891 -0.108522 0.00698078 
0.0110409 -0.104929 0.0109444 0.0568657 -0.104044 0.0100319 -0.014658 -0.100501 0.0114128 
0.0148172 -0.0957182 0.0114983 -0.0200876 -0.0929619 0.0114983 0.0184974 -0.0943177 0.0115061 
0.0383231 -0.0890299 0.0114984 -0.0906884 -0.0717102 0.0114983 0.0113448 -0.0714551 0.0114983 
0.0314795 -0.0710462 0.0114983 -0.0704014 -0.0692251 0.0114983 -0.0382176 -0.0674815 0.0114983 
-0.0206064 -0.0681147 0.0114983 0.0313099 -0.0678686 0.011498 0.0361377 -0.0689641 0.0114983 
0.0388997 -0.0667443 0.011588 0.0482178 -0.0657736 0.0114983 -0.0658302 -0.066251 0.0114983 
-0.0549861 -0.0656628 0.0114983 -0.0191051 -0.0649964 0.0114983 0.0216362 -0.0625187 0.0114983 
-0.0954098 -0.0617493 0.0118833 0.0432955 -0.0628591 0.0114983 0.0658571 -0.0603409 0.0114983 
-0.0183303 -0.0556533 0.0114983 0.00059674 -0.0588622 0.0114982 0.0212382 -0.0575754 0.0114983 
0.0261949 -0.0575702 0.0114983 -0.0940399 -0.0516631 0.0114983 -0.0191326 -0.0522093 0.0114983 
-0.0157235 -0.0533635 0.0114983 -7.13118e-05 -0.0526454 0.0114983 0.0207991 -0.0545376 0.0114983 
0.0257795 -0.0528709 0.0114983 -0.0180338 -0.0493876 0.0114983 0.0162946 -0.0512066 0.0114983 
0.031666 -0.0500222 0.0114978 0.0408039 -0.0512996 0.0114983 0.0437933 -0.0492905 0.0114983 
0.0949589 -0.0504138 0.0115161 -0.0958614 -0.045295 0.0116326 -0.0711685 -0.0455241 0.0114983 
-0.0435635 -0.0449976 0.0115004 -0.0397527 -0.0466383 0.0114983 -0.025493 -0.0452045 0.0114983 
-0.0158774 -0.047266 0.0114983 0.000755609 -0.0449816 0.0114983 0.0529768 -0.0453821 0.0114983 
-0.0881996 -0.0431682 0.0114983 -0.082602 -0.0415534 0.0114983 -0.0399257 -0.0412436 0.0114983 
-0.032118 -0.0444416 0.0114983 0.00390431 -0.0436647 0.0114983 0.00609995 -0.0415204 0.0114983 
0.0120782 -0.0443677 0.0115579 -0.0370149 -0.0385019 0.0114983 -0.0260318 -0.0409936 0.0114983 
-0.0150854 -0.0377483 0.0115026 -0.010821 -0.0404426 0.0115051 -0.00797601 -0.0389463 0.0114983 
0.00922247 -0.0393448 0.0114983 0.0127438 -0.0413081 0.0126172 -0.0396025 -0.0350917 0.0114983 
-0.026868 -0.0337642 0.0114983 -0.0217482 -0.03418 0.0114983 -0.0185208 -0.0349005 0.0114983 
0.0707026 -0.0345674 0.0114983 -0.0298737 -0.0333731 0.0115519 -0.0116821 -0.031904 0.0114983 
0.0177126 -0.0312987 0.0114983 0.0294595 -0.0349376 0.0114983 -0.0359155 -0.028814 0.0115822 
-0.0125275 -0.0277512 0.0114983 0.0028398 -0.0287964 0.0114983 0.00844711 -0.0288501 0.0114983 
0.0122721 -0.028406 0.0114976 0.0399125 -0.0294005 0.0114983 0.0520107 -0.0277365 0.0114983 
-0.0225773 -0.0234758 0.0114992 -0.00170304 -0.0241653 0.0126462 0.0106686 -0.02461 0.0114983 
0.01363 -0.0257314 0.0115027 0.0402781 -0.0258191 0.0114983 0.0549065 -0.0255343 0.0114983 
-0.0375402 -0.0212538 0.0114983 -0.0247808 -0.0190092 0.0135668 -0.0170817 -0.0207739 0.0114983 
-0.0043428 -0.0217037 0.0114983 0.00863313 -0.0208491 0.0114983 0.0237946 -0.0230713 0.0117774 
0.0267668 -0.0222413 0.0115048 -0.0544822 -0.018622 0.0114983 -0.0422037 -0.018117 0.0114983 
-0.0375891 -0.0182086 0.0114984 -0.00719819 -0.0185729 0.0114983 0.00700172 -0.0173403 0.0115003 
0.0528373 -0.0161049 0.0114983 -0.0542598 -0.0139259 0.011958 -0.0354146 -0.0156213 0.0114983 
-0.0309861 -0.0142202 0.0114983 -0.00857266 -0.0135001 0.0115361 -0.000857394 -0.0138852 0.0114989 
0.00213829 -0.0140841 0.011505 0.0165557 -0.0145492 0.0114983 0.0272264 -0.0154786 0.0115944 
-0.0593605 -0.010078 0.0114983 -0.0563121 -0.0118193 0.0114822 -0.0531729 -0.0099981 0.0114983 
-0.0271716 -0.00826882 0.0117624 -0.0215791 -0.0109532 0.0114948 -0.0113378 -0.0115285 0.0115005 
-0.00254665 -0.00895987 0.0115101 0.00128624 -0.00923573 0.0116111 0.00420574 -0.011901 0.0114983 
0.0272694 -0.00976075 0.0114983 0.0447875 -0.00991985 0.0114983 -0.032495 -0.00478998 0.0114983 
-0.0278168 -0.00506123 0.0114983 -0.0179964 -0.00616476 0.0114982 -0.00947913 -0.00920344 0.0120735 
0.00371825 -0.00645228 0.0115065 0.0052149 -0.00904856 0.0115023 0.012512 -0.00907716 0.0114984 
0.0195476 -0.00861868 0.0114944 0.0476428 -0.0082464 0.0114979 -0.0662477 -0.00303485 0.0114983 
-0.0482785 -0.00388324 0.0114983 -0.0354957 -0.00299782 0.0114983 -0.0274326 -0.00123851 0.0114983 
-0.0249912 -0.00352155 0.0114983 -0.00728955 -0.00451748 0.0114982 -0.00408018 -0.00514884 0.0118979 
0.0112026 -0.00302931 0.0115023 0.0199202 -0.00261701 0.0115504 0.030537 -0.00418914 0.0114983 
-0.0958115 7.09915e-07 0.0114983 -0.0633689 -0.000631164 0.0114983 -0.0126384 -0.00189455 0.0114966 
-0.00966049 -0.00216952 0.0118311 -0.00407201 -0.0019977 0.0114933 -0.000141602 -0.000703771 0.0114963 
0.00874063 -0.0013247 0.0114977 0.0372397 -8.08411e-05 0.0114983 0.0555166 -0.00182572 0.0114983 
-0.0338251 0.00272658 0.0114981 -0.0121843 0.00259163 0.0114937 -0.000984 0.00217308 0.0116363 
0.0073436 0.00278504 0.0114983 0.0426395 0.00169112 0.0114983 0.0439562 0.00514335 0.0115029 
-0.0521889 0.00719088 0.0114983 -0.0401769 0.00542475 0.0114981 -0.0351244 0.0054359 0.0114985 
-0.0243635 0.00734866 0.0114983 -0.0144303 0.00701701 0.0115155 -0.00844624 0.00798355 0.0114984 
0.000548359 0.00487732 0.0114972 0.00499564 0.00711149 0.0114975 0.00779169 0.00579222 0.0114983 
0.0268919 0.00581765 0.0114983 0.0409451 0.00510392 0.0114982 0.0471074 0.00609131 0.0114983 
-0.0787862 0.0101374 0.0114983 -0.0430821 0.00937528 0.0114983 -0.0187308 0.010773 0.0114983 
-0.0136739 0.0113994 0.0114978 -0.0115429 0.00830208 0.0119809 -0.00214026 0.0116979 0.0116947 
0.00709536 0.00966055 0.0115306 0.0119766 0.0119778 0.0115037 0.0134048 0.00931119 0.0114984 
0.0207652 0.0125526 0.0114983 0.0359783 0.0102664 0.0114962 -0.0948668 0.0125703 0.0114983 
-0.0623097 0.0142947 0.0114983 -0.0345643 0.0157424 0.0114983 -0.0135044 0.0151818 0.0114983 
-0.000286331 0.0142538 0.0114983 0.00349585 0.0128907 0.0115403 0.0387676 0.0141611 0.0114983 
0.0476379 0.012953 0.0114983 -0.0320441 0.0187076 0.0114983 -0.0229537 0.0175208 0.0119999 
-0.00643607 0.0181514 0.0116279 -0.00265754 0.0162307 0.0116213 0.000107783 0.0173897 0.0115035 
0.012642 0.017506 0.0114985 0.0156044 0.018192 0.0114983 0.0384573 0.0191105 0.0114996 
0.0627967 0.0164448 0.0114983 -0.0934905 0.0213483 0.0114983 -0.0706186 0.020262 0.0114983 
-0.0166617 0.0221441 0.0119801 -0.0148969 0.0197174 0.0116183 -0.00433567 0.0206507 0.0114977 
-0.00132182 0.0203123 0.0115538 0.00139839 0.0213756 0.0122219 0.00416706 0.0230888 0.0114986 
0.0166893 0.022972 0.0115103 0.0205441 0.0223578 0.0115636 0.0281095 0.0221501 0.0114976 
0.0438237 0.0193764 0.0114983 -0.0958288 0.0233932 0.0114983 -0.0378435 0.026172 0.0114983 
-0.0347524 0.0263155 0.0114984 -0.0278482 0.02533 0.0114983 -0.013857 0.0254709 0.0114929 
0.000984662 0.0253278 0.0114975 0.0186858 0.0252717 0.0114983 0.023102 0.026187 0.0114983 
0.0408468 0.0238307 0.0114983 -0.0952872 0.0279875 0.0114983 -0.0400427 0.028226 0.0114983 
-0.0330384 0.0288056 0.0114983 -0.0300834 0.028169 0.0114983 -0.0201271 0.0279373 0.0114983 
-0.0129341 0.0291412 0.0114983 -0.00575525 0.0274182 0.0114983 -0.00207537 0.0298676 0.0114983 
0.000706838 0.0287478 0.0114986 0.00365597 0.0281797 0.0114981 -0.035276 0.0308995 0.0114983 
-0.0315542 0.0322875 0.0114983 -0.0229437 0.0301815 0.0114983 -0.0183554 0.0326038 0.0119325 
-0.0101796 0.0331041 0.0114984 0.0114695 0.0305556 0.0114983 0.0122213 0.0335777 0.0114983 
0.0329769 0.0304922 0.0114983 0.0363108 0.0321144 0.0114983 0.0406136 0.03088 0.0114983 
-0.0945847 0.0345292 0.0114983 -0.0305121 0.0357346 0.0114983 -0.0271452 0.034799 0.0114983 
-0.0141202 0.0374694 0.0115016 -0.011082 0.03723 0.0114983 0.0517308 0.0346969 0.0115451 
0.0640149 0.0371856 0.0114983 -0.0280395 0.0381844 0.0114983 -0.0251249 0.0394738 0.0114983 
-0.0202401 0.0398539 0.0116842 -0.0149086 0.0405704 0.0114983 0.00569584 0.0391562 0.0114983 
-0.0754684 0.0413076 0.0114983 -0.0437249 0.0433529 0.0114983 0.0191979 0.0429372 0.0114983 
0.0369749 0.0431072 0.0114983 0.039935 0.0440342 0.0114983 0.0507037 0.0444018 0.0114983 
-0.0264143 0.0467137 0.0114983 -0.0159807 0.0472187 0.0114983 0.0399941 0.0473473 0.0114983 
-0.0182258 0.0504163 0.0114983 -0.0111216 0.0491552 0.0114983 0.0059062 0.0483862 0.0114983 
0.00897457 0.0494194 0.0114983 0.0370684 0.0485967 0.0114983 0.0517732 0.0492422 0.0114983 
0.0911043 0.0503093 0.0114983 -0.0925947 0.0545268 0.0114983 -0.0116109 0.0530547 0.0114983 
0.005109 0.0522632 0.0114983 0.00296872 0.0543955 0.0114983 0.0461243 0.0531182 0.0114983 
-0.0585905 0.0584192 0.0114983 0.00312319 0.0582162 0.0114983 0.00743365 0.0583678 0.0114983 
0.0192489 0.0572341 0.0114983 0.0115049 0.0600994 0.0114983 0.02847 0.0593898 0.0114983 
-0.0661448 0.0655245 0.0114983 0.0719522 0.0662709 0.0114983 0.0875897 0.0640191 0.0114983 
-0.0534052 0.066719 0.0114983 -0.00182994 0.0702258 0.0114983 0.00540372 0.0724398 0.0114983 
0.0908321 0.0718277 0.0114983 0.0955904 0.0702349 0.0118015 -0.0402035 0.0758341 0.0114983 
-0.0696958 0.0782252 0.0114983 0.0384055 0.0771379 0.0114983 0.0852066 0.0753216 0.0114983 
0.0916245 0.0812679 0.0114983 0.00704919 0.0843487 0.0114983 0.015169 0.083975 0.0114983 
0.019064 0.0861917 0.0114983 0.0195769 0.0831044 0.0114983 0.0602036 0.0923267 0.0114983 
-0.0909142 0.0954899 0.0114983 -0.015983 0.095292 0.0116378 0.0794931 0.0946465 0.0122146 
0.0168173 -0.090217 0.0129176 0.0891798 -0.0887587 0.0124961 -0.0438381 -0.0782718 0.0124961 
0.0301955 -0.0781412 0.0124961 -0.0260704 -0.0710062 0.0124961 -0.0155059 -0.0709069 0.0124961 
0.00747865 -0.0677372 0.0124961 -0.041124 -0.0644803 0.0124961 -0.0268104 -0.0658421 0.0124961 
-0.0039459 -0.0644881 0.0124961 -0.075496 -0.063124 0.0124961 -0.0183708 -0.05995 0.0124961 
[...]
POINT_DATA 618
FIELD FieldData 7
id 1 618 int
48 160 82 282 89 30 12 6 105 
206 52 356 77 243 59 397 9 112 
265 137 229 73 10 393 200 50 343 
252 83 173 283 189 19 18 267 108 
76 71 90 8 307 328 110 85 251 
75 319 97 125 47 179 290 242 268 
161 192 11 45 107 202 281 333 458 
406 425 32 240 152 498 418 514 353 
314 218 308 23 378 371 63 433 358 
352 475 438 101 448 164 489 120 214 
487 292 249 368 561 502 127 263 109 
525 211 197 84 172 339 305 436 344 
320 303 72 123 139 482 64 153 205 
36 476 25 146 294 340 366 384 412 
96 315 499 373 278 279 500 295 114 
227 228 162 226 126 185 288 163 355 
217 74 473 150 395 121 244 346 201 
404 332 190 447 302 420 204 253 239 
407 199 266 275 341 484 213 369 411 
61 334 419 231 552 359 296 392 360 
198 136 210 291 289 370 421 497 309 
165 264 432 379 270 430 318 424 171 
257 277 86 471 513 140 230 331 483 
382 449 330 329 33 178 255 457 354 
445 215 399 357 133 276 102 321 186 
38 99 238 100 463 385 381 437 203 
151 70 148 87 49 22 122 423 405 
317 383 304 396 21 60 269 256 372 
177 212 65 398 241 159 51 20 134 
237 394 224 254 225 223 62 176 88 
98 135 39 306 26 188 367 216 175 
410 184 111 191 7 113 34 149 138 
57 95 46 166 147 24 37 35 187 
124 13 301 363 208 4 2 324 119 
222 258 262 154 261 168 68 416 375 
325 92 260 132 409 167 142 481 386 
300 144 40 16 313 42 348 336 157 
523 414 529 365 543 452 285 219 67 
323 541 540 156 494 460 521 15 559 
464 506 335 248 29 337 129 402 467 
429 465 155 14 347 387 284 361 3 
274 131 527 193 391 141 459 444 235 
524 504 247 181 362 442 246 115 417 
415 342 207 79 403 501 158 250 533 
456 170 562 232 91 472 326 390 492 
351 94 174 286 311 195 143 81 468 
293 466 532 180 545 221 488 145 434 
259 116 511 512 451 350 41 245 183 
316 345 27 539 485 5 298 287 422 
271 338 55 377 431 17 408 117 66 
106 236 322 556 536 454 426 273 534 
400 327 470 519 446 503 450 220 44 
272 509 462 53 169 428 435 401 196 
310 54 209 69 103 349 312 297 80 
182 128 93 43 374 299 130 388 234 
58 194 28 104 78 1 233 56 118 
31 389 477 526 518 546 413 507 439 
560 364 443 550 531 535 380 566 455 
469 563 376 474 427 522 542 493 564 
520 544 480 553 508 491 440 548 537 
490 549 554 280 547 565 515 555 551 
528 496 510 517 441 557 495 576 505 
558 516 461 486 478 479 568 538 571 
573 530 453 572 574 575 577 567 578 
570 579 569 589 588 583 584 580 581 
591 587 590 585 586 592 582 593 595 
601 604 594 600 596 597 603 598 602 
599 605 615 611 608 609 618 616 617 
613 607 612 610 614 606 
type 1 618 int
1 1 1 1 1 1 1 1 1 
1 1 1 1 1 1 1 1 1 
1 1 1 1 1 1 1 1 1 
1 1 1 1 1 1 1 1 1 
1 1 1 1 1 1 1 1 1 
1 1 1 1 1 1 1 1 1 
1 1 1 1 1 1 1 1 1 
1 1 1 1 1 1 1 1 1 
1 1 1 1 1 1 1 1 1 
1 1 1 1 1 1 1 1 1 
1 1 1 1 1 1 1 1 1 
1 1 1 1 1 1 1 1 1 
1 1 1 1 1 1 1 1 1 
1 1 1 1 1 1 1 1 1 
1 1 1 1 1 1 1 1 1 
1 1 1 1 1 1 1 1 1 
1 1 1 1 1 1 1 1 1 
1 1 1 1 1 1 1 1 1 
1 1 1 1 1 1 1 1 1 
1 1 1 1 1 1 1 1 1 
1 1 1 1 1 1 1 1 1 
1 1 1 1 1 1 1 1 1 
1 1 1 1 1 1 1 1 1 
1 1 1 1 1 1 1 1 1 
1 1 1 1 1 1 1 1 1 
1 1 1 1 1 1 1 1 1 
1 1 1 1 1 1 1 1 1 
1 1 1 1 1 1 1 1 1 
1 1 1 1 1 1 1 1 1 
1 1 1 1 1 1 1 1 1 
1 1 1 1 1 1 1 1 1 
1 1 1 1 1 1 1 1 1 
1 1 1 1 1 1 1 1 1 
1 1 1 1 1 1 1 1 1 
1 1 1 1 1 1 1 1 1 
1 1 1 1 1 1 1 1 1 
1 1 1 1 1 1 1 1 1 
1 1 1 1 1 1 1 1 1 
1 1 1 1 1 1 1 1 1 
1 1 1 1 1 1 1 1 1 
1 1 1 1 1 1 1 1 1 
1 1 1 1 1 1 1 1 1 
1 1 1 1 1 1 1 1 1 
1 1 1 1 1 1 1 1 1 
1 1 1 1 1 1 1 1 1 
1 1 1 1 1 1 1 1 1 
1 1 1 1 1 1 1 1 1 
1 1 1 1 1 1 1 1 1 
1 1 1 1 1 1 1 1 1 
1 1 1 1 1 1 1 1 1 
1 1 1 1 1 1 1 1 1 
1 1 1 1 1 1 1 1 1 
1 1 1 1 1 1 1 1 1 
1 1 1 1 1 1 1 1 1 
1 1 1 1 1 1 1 1 1 
1 1 1 1 1 1 1 1 1 
1 1 1 1 1 1 1 1 1 
1 1 1 1 1 1 1 1 1 
1 1 1 1 1 1 1 1 1 
1 1 1 1 1 1 1 1 1 
1 1 1 1 1 1 1 1 1 
1 1 1 1 1 1 1 1 1 
1 1 1 1 1 1 1 1 1 
1 1 1 1 1 1 1 1 1 
1 1 1 1 1 1 1 1 1 
1 1 1 1 1 1 1 1 1 
1 1 1 1 1 1 1 1 1 
1 1 1 1 1 1 1 1 1 
1 1 1 1 1 1 
i 3 618 int
0 0 0 0 0 0 0 0 0 
0 0 0 0 0 0 0 0 0 
0 0 0 0 0 0 0 0 0 
0 0 0 0 0 0 0 0 0 
0 0 0 0 0 0 0 0 0 
0 0 0 0 0 0 0 0 0 
0 0 0 0 0 0 0 0 0 
0 0 0 0 0 0 0 0 0 
0 0 0 0 0 0 0 0 0 
0 0 0 0 0 0 0 0 0 
0 0 0 0 0 0 0 0 0 
0 0 0 0 0 0 0 0 0 
0 0 0 0 0 0 0 0 0 
0 0 0 0 0 0 0 0 0 
0 0 0 0 0 0 0 0 0 
0 0 0 0 0 0 0 0 0 
0 0 0 0 0 0 0 0 0 
0 0 0 0 0 0 0 0 0 
0 0 0 0 0 0 0 0 0 
0 0 0 0 0 0 0 0 0 
0 0 0 0 0 0 0 0 0 
0 0 0 0 0 0 0 0 0 
0 0 0 0 0 0 0 0 0 
0 0 0 0 0 0 0 0 0 
0 0 0 0 0 0 0 0 0 
0 0 0 0 0 0 0 0 0 
0 0 0 0 0 0 0 0 0 
0 0 0 0 0 0 0 0 0 
0 0 0 0 0 0 0 0 0 
0 0 0 0 0 0 0 0 0 
0 0 0 0 0 0 0 0 0 
0 0 0 0 0 0 0 0 0 
0 0 0 0 0 0 0 0 0 
0 0 0 0 0 0 0 0 0 
0 0 0 0 0 0 0 0 0 
0 0 0 0 0 0 0 0 0 
0 0 0 0 0 0 0 0 0 
0 0 0 0 0 0 0 0 0 
0 0 0 0 0 0 0 0 0 
0 0 0 0 0 0 0 0 0 
0 0 0 0 0 0 0 0 0 
0 0 0 0 0 0 0 0 0 
0 0 0 0 0 0 0 0 0 
0 0 0 0 0 0 0 0 0 
0 0 0 0 0 0 0 0 0 
0 0 0 0 0 0 0 0 0 
0 0 0 0 0 0 0 0 0 
0 0 0 0 0 0 0 0 0 
0 0 0 0 0 0 0 0 0 
0 0 0 0 0 0 0 0 0 
0 0 0 0 0 0 0 0 0 
0 0 0 0 0 0 0 0 0 
0 0 0 0 0 0 0 0 0 
0 0 0 0 0 0 0 0 0 
0 0 0 0 0 0 0 0 0 
0 0 0 0 0 0 0 0 0 
0 0 0 0 0 0 0 0 0 
0 0 0 0 0 0 0 0 0 
0 0 0 0 0 0 0 0 0 
0 0 0 0 0 0 0 0 0 
0 0 0 0 0 0 0 0 0 
0 0 0 0 0 0 0 0 0 
0 0 0 0 0 0 0 0 0 
0 0 0 0 0 0 0 0 0 
0 0 0 0 0 0 0 0 0 
0 0 0 0 0 0 0 0 0 
0 0 0 0 0 0 0 0 0 
0 0 0 0 0 0 0 0 0 
0 0 0 0 0 0 0 0 0 
0 0 0 0 0 0 0 0 0 
0 0 0 0 0 0 0 0 0 
0 0 0 0 0 0 0 0 0 
0 0 0 0 0 0 0 0 0 
0 0 0 0 0 0 0 0 0 
0 0 0 0 0 0 0 0 0 
0 0 0 0 0 0 0 0 0 
0 0 0 0 0 0 0 0 0 
0 0 0 0 0 0 0 0 0 
0 0 0 0 0 0 0 0 0 
0 0 0 0 0 0 0 0 0 
0 0 0 0 0 0 0 0 0 
0 0 0 0 0 0 0 0 0 
0 0 0 0 0 0 0 0 0 
0 0 0 0 0 0 0 0 0 
0 0 0 0 0 0 0 0 0 
0 0 0 0 0 0 0 0 0 
0 0 0 0 0 0 0 0 0 
0 0 0 0 0 0 0 0 0 
0 0 0 0 0 0 0 0 0 
0 0 0 0 0 0 0 0 0 
0 0 0 0 0 0 0 0 0 
0 0 0 0 0 0 0 0 0 
0 0 0 0 0 0 0 0 0 
0 0 0 0 0 0 0 0 0 
0 0 0 0 0 0 0 0 0 
0 0 0 0 0 0 0 0 0 
0 0 0 0 0 0 0 0 0 
0 0 0 0 0 0 0 0 0 
0 0 0 0 0 0 0 0 0 
0 0 0 0 0 0 0 0 0 
0 0 0 0 0 0 0 0 0 
0 0 0 0 0 0 0 0 0 
0 0 0 0 0 0 0 0 0 
0 0 0 0 0 0 0 0 0 
0 0 0 0 0 0 0 0 0 
0 0 0 0 0 0 0 0 0 
0 0 0 0 0 0 0 0 0 
0 0 0 0 0 0 0 0 0 
0 0 0 0 0 0 0 0 0 
0 0 0 0 0 0 0 0 0 
0 0 0 0 0 0 0 0 0 
0 0 0 0 0 0 0 0 0 
0 0 0 0 0 0 0 0 0 
0 0 0 0 0 0 0 0 0 
0 0 0 0 0 0 0 0 0 
0 0 0 0 0 0 0 0 0 
0 0 0 0 0 0 0 0 0 
0 0 0 0 0 0 0 0 0 
0 0 0 0 0 0 0 0 0 
0 0 0 0 0 0 0 0 0 
0 0 0 0 0 0 0 0 0 
0 0 0 0 0 0 0 0 0 
0 0 0 0 0 0 0 0 0 
0 0 0 0 0 0 0 0 0 
0 0 0 0 0 0 0 0 0 
0 0 0 0 0 0 0 0 0 
0 0 0 0 0 0 0 0 0 
0 0 0 0 0 0 0 0 0 
0 0 0 0 0 0 0 0 0 
0 0 0 0 0 0 0 0 0 
0 0 0 0 0 0 0 0 0 
0 0 0 0 0 0 0 0 0 
0 0 0 0 0 0 0 0 0 
0 0 0 0 0 0 0 0 0 
0 0 0 0 0 0 0 0 0 
0 0 0 0 0 0 0 0 0 
0 0 0 0 0 0 0 0 0 
0 0 0 0 0 0 0 0 0 
0 0 0 0 0 0 0 0 0 
0 0 0 0 0 0 0 0 0 
0 0 0 0 0 0 0 0 0 
0 0 0 0 0 0 0 0 0 
0 0 0 0 0 0 0 0 0 
0 0 0 0 0 0 0 0 0 
0 0 0 0 0 0 0 0 0 
0 0 0 0 0 0 0 0 0 
0 0 0 0 0 0 0 0 0 
0 0 0 0 0 0 0 0 0 
0 0 0 0 0 0 0 0 0 
0 0 0 0 0 0 0 0 0 
0 0 0 0 0 0 0 0 0 
0 0 0 0 0 0 0 0 0 
0 0 0 0 0 0 0 0 0 
0 0 0 0 0 0 0 0 0 
0 0 0 0 0 0 0 0 0 
0 0 0 0 0 0 0 0 0 
0 0 0 0 0 0 0 0 0 
0 0 0 0 0 0 0 0 0 
0 0 0 0 0 0 0 0 0 
0 0 0 0 0 0 0 0 0 
0 0 0 0 0 0 0 0 0 
0 0 0 0 0 0 0 0 0 
0 0 0 0 0 0 0 0 0 
0 0 0 0 0 0 0 0 0 
0 0 0 0 0 0 0 0 0 
0 0 0 0 0 0 0 0 0 
0 0 0 0 0 0 0 0 0 
0 0 0 0 0 0 0 0 0 
0 0 0 0 0 0 0 0 0 
0 0 0 0 0 0 0 0 0 
0 0 0 0 0 0 0 0 0 
0 0 0 0 0 0 0 0 0 
0 0 0 0 0 0 0 0 0 
0 0 0 0 0 0 0 0 0 
0 0 0 0 0 0 0 0 0 
0 0 0 0 0 0 0 0 0 
0 0 0 0 0 0 0 0 0 
0 0 0 0 0 0 0 0 0 
0 0 0 0 0 0 0 0 0 
0 0 0 0 0 0 0 0 0 
0 0 0 0 0 0 0 0 0 
0 0 0 0 0 0 0 0 0 
0 0 0 0 0 0 0 0 0 
0 0 0 0 0 0 0 0 0 
0 0 0 0 0 0 0 0 0 
0 0 0 0 0 0 0 0 0 
0 0 0 0 0 0 0 0 0 
0 0 0 0 0 0 0 0 0 
0 0 0 0 0 0 0 0 0 
0 0 0 0 0 0 0 0 0 
0 0 0 0 0 0 0 0 0 
0 0 0 0 0 0 0 0 0 
0 0 0 0 0 0 0 0 0 
0 0 0 0 0 0 0 0 0 
0 0 0 0 0 0 0 0 0 
0 0 0 0 0 0 0 0 0 
0 0 0 0 0 0 0 0 0 
0 0 0 0 0 0 0 0 0 
0 0 0 0 0 0 0 0 0 
0 0 0 0 0 0 0 0 0 
0 0 0 0 0 0 0 0 0 
0 0 0 0 0 0 0 0 0 
0 0 0 0 0 0 0 0 0 
0 0 0 0 0 0 0 0 0 
0 0 0 0 0 0 0 0 0 
0 0 0 0 0 0 0 0 0 

v 3 618 double
-0.176432 -0.479133 -2.26899 -0.00995307 -0.36973 -0.942749 -0.150544 -0.34945 -0.959705 
-0.235423 -0.349844 -0.857022 -0.219404 -0.368802 -0.541321 -0.0504897 -0.215186 -0.574626 
-0.0652621 -0.178092 -0.465702 -0.130769 -0.28505 -0.415896 0.110456 -0.254487 -0.328978 
0.0931829 -0.278324 -0.174531 0.119796 -0.234867 -0.169641 0.0468167 -0.0729109 -0.0257847 
0.0283574 -0.202639 1.67805e-14 -0.0712659 -0.258215 4.04846e-14 0.108628 -0.324076 0.00215132 
0.161236 -0.384793 -2.20185e-05 -0.211423 -0.182789 -8.59365e-14 -0.0115046 -0.16491 7.99915e-14 
0.0729133 -0.191106 1.07752e-09 -0.123107 -0.145498 -2.27271e-14 -0.0883677 -0.164229 -5.43318e-14 
-0.0598722 -0.124393 9.77819e-16 0.0662802 -0.176132 0.000115379 0.077151 -0.155151 -2.57453e-07 
0.182554 -0.199872 -0.0711762 0.116578 -0.107457 -6.92278e-15 -0.260551 -0.197813 7.99915e-14 
-0.116977 -0.146521 -3.06277e-14 -0.0137142 -0.123754 -6.92356e-15 0.0244282 -0.122767 1.67805e-14 
0.0884119 -0.0972 0.0162747 0.175599 -0.259601 7.99923e-14 0.152919 -0.112596 7.99923e-14 
-0.0495668 -0.0821168 1.2785e-09 -0.0712622 -0.178458 -9.91051e-05 0.0170107 -0.215603 -4.64288e-14 
0.039098 -0.131888 6.41895e-14 0.0308279 -0.0492269 -1.57515e-14 -0.013493 -0.0783549 -5.81437e-12 
-0.0657836 -0.150561 -5.43325e-14 -0.0834311 -0.129916 5.89e-14 0.0321974 -0.211777 -6.22331e-14 
0.0487322 -0.110069 -6.22331e-14 -0.0252605 -0.0719961 5.56455e-09 0.0528025 -0.0461127 -7.01337e-14 
0.0204772 -0.0904964 8.73429e-05 0.127005 -0.163009 9.70513e-05 0.0749032 -0.13184 7.20901e-14 
-0.0317428 -0.189087 0.00064545 0.0578695 -0.0780205 0.0277325 -0.207955 -0.100323 1.67805e-14 
-0.138522 -0.122353 -0.00620904 -0.133248 -0.170002 -2.7493e-10 -0.0515001 -0.0874587 1.78346e-12 
-0.0123001 -0.0813551 -6.59952e-09 -0.022287 -0.101469 3.25833e-14 0.0819189 -0.0980738 -7.80359e-14 
-0.0614873 -0.0973283 -3.45872e-06 -0.147591 -0.0617739 2.46819e-14 -0.0908126 -0.0969936 8.87996e-15 
-0.0918492 -0.106058 -1.60521e-07 0.00174516 -0.123609 -6.22331e-14 0.00656257 -0.125271 1.67805e-14 
-0.0803127 -0.282865 -0.0107386 -0.0980737 -0.0937127 -4.64277e-14 -0.0762823 -0.0847877 -6.22331e-14 
-0.175474 -0.00412689 -0.00321691 -0.108728 -0.0857142 0.00179698 -0.067713 -0.14802 9.85702e-09 
0.0489767 -0.134619 -8.63111e-14 -0.0247447 -0.263105 0.146392 -0.176792 -0.0798606 -3.08722e-12 
-0.052134 -0.0451821 2.25532e-09 -0.053848 -0.0704437 -6.92278e-15 -0.0413033 -0.0566743 7.20901e-14 
0.1155 -0.0691733 1.67805e-14 -0.0413622 -0.15853 0.0397114 -0.0447823 -0.0443313 -3.49305e-14 
0.192128 -0.0893434 7.20909e-14 0.0715662 -0.366129 -5.513e-08 -0.369629 -0.254162 0.0486347 
-0.0466903 -0.135987 7.17966e-10 0.0316138 -0.0957448 4.6692e-12 0.0828094 -0.0846489 -6.26892e-11 
-0.0309804 -0.160342 0.00396223 0.146579 -0.0315779 -6.34996e-14 0.121053 -0.027244 1.67798e-14 
-0.0848334 -0.0283536 0.0025518 -0.00929338 -0.0799389 0.0272819 -0.00687153 -0.0935594 7.76872e-07 
0.000505032 -0.171539 0.00135683 0.125563 -0.0672648 1.6749e-10 0.181906 -0.0473008 5.62874e-14 
-0.0388179 -0.0141556 5.6969e-06 -0.148854 0.199154 0.228945 -0.0416334 -0.0439556 -5.18699e-05 
-0.00782858 -0.0184553 -4.64314e-14 -0.0532132 -0.111164 -1.11849e-06 0.135854 -0.0453609 0.0302558 
0.136456 -0.0900517 0.0027327 -0.114304 -0.036751 -7.80359e-14 -0.138836 -0.0540602 3.22263e-06 
-0.101006 -0.00193511 0.000247976 -0.00137615 -0.00456545 -3.06281e-13 0.0580027 -0.126193 0.0148888 
0.100754 0.00479008 -3.06276e-14 -0.204998 -0.057338 0.0631937 -0.0953018 -0.022893 -9.01403e-05 
-0.033123 -0.0330319 -6.22331e-14 -0.0335679 0.0272532 -0.0151137 0.0396821 -0.0226426 -0.000332644 
0.0404916 -0.0727704 0.00881036 -0.0410677 -0.0188118 -6.81907e-10 -0.0341657 -0.0930943 0.00925629 
-0.115189 -0.0100952 4.04854e-14 -0.187889 0.0428254 -0.00951064 -0.111381 -0.0247977 7.99923e-14 
-0.143838 0.0407173 -0.00491755 -0.0547316 -0.020727 0.00779497 -0.0807808 -0.0153234 0.0134097 
-0.0517276 -0.00518011 0.00967456 0.0274569 -0.0453064 0.0643692 0.0168633 -0.0459832 0.00049872 
0.0394267 -0.0489749 -2.91787e-09 0.110329 0.0286604 -7.01345e-14 -0.0797909 0.0560398 9.80727e-05 
-0.0578231 0.0469165 -5.95277e-09 -0.0419468 -0.0511728 0.000358017 -0.00256357 -0.0281378 0.0881538 
-0.00286485 -0.00753049 0.0120323 -0.0447863 -0.0477224 0.000221384 0.0286362 -0.0571935 1.50731e-05 
0.0285478 -0.038292 0.00377556 0.143813 0.00234665 3.79584e-05 -0.152383 -0.00313868 -6.22331e-14 
-0.0820759 0.00560768 4.8386e-14 -0.0429559 -0.0071172 7.20901e-14 -0.0857342 0.0828991 3.26001e-14 
-0.0639879 0.113421 0.000393295 0.0166822 -0.00423709 -0.000216783 -0.0299808 -0.100963 -0.0299844 
-0.0134508 -0.0497216 0.0210635 0.113194 0.103514 0.0283979 0.100246 0.00281425 0.000245205 
0.00792872 -0.035577 9.18279e-12 -0.152815 0.0208366 -4.64288e-14 -0.0239916 -0.0101014 0.0130704 
0.0136425 -0.0611403 -0.0071355 -0.073121 -0.0708354 0.0431258 0.0112106 -0.043363 0.00435728 
-0.00619666 -0.0288525 0.0120881 0.139033 0.00509115 1.45488e-14 0.141297 -0.0149811 -5.98869e-12 
-0.0570631 0.000170458 0.00041446 -0.0403963 0.0627779 0.00864935 0.0358763 -0.0168335 0.0373588 
-0.0418881 -0.00604897 -1.29636e-05 0.111336 -0.055127 8.00716e-14 0.0619853 -0.0152752 -0.00124067 
-0.1308 0.0155856 4.49034e-10 -0.0841997 -0.00294072 0.0021824 -0.109839 -0.0190443 -0.000444207 
-0.0524542 0.0120627 7.99923e-14 -0.0896829 0.0339031 -0.0186437 -0.0322662 0.0547785 0.000806441 
0.120035 -0.0956326 -0.00140515 0.028593 0.00935514 -6.56939e-05 0.00606941 -0.00709714 -1.0506e-05 
0.0572479 -0.00995548 -1.48249e-14 0.0651134 -0.0320787 -0.000418342 0.100811 -0.026895 -1.21735e-09 
-0.244169 0.0115509 -4.64288e-14 -0.0707427 -0.0216026 -6.22324e-14 -0.0715086 0.0265844 1.57884e-08 
0.0325344 -0.0323087 0.000514939 -0.0755447 0.143229 -0.153624 0.054152 0.0437272 -0.0441373 
-0.0181683 0.0210293 -0.0045569 0.146102 0.042476 0.00845328 0.0213185 0.0330783 -0.000356144 
0.054041 0.047437 1.34955e-09 0.221259 -0.0600583 0.0512272 -0.156469 -0.0371196 1.05714e-06 
-0.126487 -0.000192742 -6.92278e-15 -0.0763624 0.00318099 7.85661e-08 -0.00665891 -0.027416 5.25655e-05 
0.0370947 0.0112108 -2.30473e-06 -0.00446863 -0.000170927 -0.0172272 0.11868 0.0549613 1.73701e-10 
0.120675 0.00355795 -4.64296e-14 -0.0447008 0.00755921 -6.22323e-14 -0.442277 -0.104699 0.0406778 
0.0265213 0.0995294 0.0090582 0.0114622 0.0521584 -0.00791175 0.0456527 -0.0141712 0.00934648 
0.057371 0.0632623 -0.00150272 0.0675119 0.0251367 -3.52672e-07 0.139785 0.0898752 -0.00234471 
0.154376 -0.053045 9.77819e-16 0.0430987 0.0440392 2.76496e-08 -0.167766 0.0350649 7.20901e-14 
-0.0227403 -0.0088147 0.0673284 -0.101119 -0.104388 -0.00336255 0.0287652 0.0597208 -0.00349355 
0.0519124 0.0438382 -0.0530431 -0.0420842 0.123849 -0.0464026 -0.0770981 0.0528176 -0.000749249 
0.0412076 0.0297839 -0.100255 0.102612 0.0813557 0.0155014 0.135226 0.107406 0.00150128 
0.171406 0.00122047 4.04854e-14 0.00641046 0.021477 5.19836e-08 -0.0488783 0.0335064 9.78591e-16 
-0.0618896 0.064312 0.00013058 -0.0333967 0.0942505 2.19635e-10 0.0732647 0.14169 0.0105817 
0.0314537 -0.000838601 0.00122141 -0.0368707 0.126416 4.97733e-05 0.000168498 0.162852 -0.00677213 
0.174291 0.0633417 -6.92356e-15 0.015963 0.046558 -5.43325e-14 -0.0513519 0.0311343 3.25833e-14 
-0.0156627 0.041224 2.16684e-05 -0.0049853 0.0611154 0.000371335 0.0192718 0.059854 -0.000334432 
0.0072155 0.12891 5.79879e-09 0.0166857 0.0862596 1.94674e-11 0.0270848 0.0647534 0.000420076 
0.00311065 0.0176154 3.71061e-05 0.0175109 0.0699606 -0.00093019 -0.037738 0.0251415 -2.989e-05 
-0.0688001 0.0874236 -7.10103e-14 -0.128813 -0.00289765 1.00673e-06 -0.109415 0.251024 0.008981 
0.003881 0.00242914 -5.2188e-05 0.040162 0.0794352 -3.69697e-13 0.0277392 0.0809722 4.83852e-14 
0.0590057 0.0494184 -5.43325e-14 0.0626426 0.0671174 7.99915e-14 0.0724148 0.0488648 4.83852e-14 
0.0267461 0.128153 1.24026e-12 -0.0723146 0.10641 1.30805e-12 -0.0637864 0.0710961 -8.46214e-08 
0.0233921 0.133176 -0.0336514 0.0280076 0.0960428 4.11795e-06 0.273012 0.124251 -0.0112288 
0.202941 0.178992 2.70933e-12 0.00131626 0.0799643 -8.59372e-14 0.00132283 0.0974567 -3.06269e-14 
0.0663834 0.0842109 -0.0398776 -0.000689834 0.141608 1.838e-05 0.0262607 0.10509 -7.01345e-14 
-0.0157026 0.112592 2.00303e-07 -0.0786047 0.0960862 -3.06276e-14 0.0296364 0.161358 -3.06269e-14 
0.0835024 0.11061 -1.34771e-05 0.106739 0.0813037 -3.75693e-07 0.0854855 0.0865169 1.67805e-14 
-0.041004 0.0866999 5.62866e-14 -0.0631411 0.157312 -6.92355e-15 0.0383749 0.112555 2.64249e-10 
-0.0624609 0.0634363 7.99915e-14 0.0266883 0.0926467 8.03473e-15 -0.0212892 0.121857 -5.43318e-14 
-0.0347847 0.0958445 -7.80359e-14 0.0620083 0.133988 7.20901e-14 0.116987 0.0990845 -4.64288e-14 
0.244382 0.10979 1.67805e-14 0.0395284 0.0702911 4.83852e-14 -0.00348859 0.116333 -1.48249e-14 
-0.00216469 0.0967195 0.00522408 -0.00317018 0.106389 -2.56254e-05 0.0897284 0.0922176 -6.92355e-15 
-0.276491 0.116283 5.62866e-14 -0.00217578 0.111984 5.62874e-14 0.0179084 0.160334 -7.80359e-14 
0.0819195 0.196512 -1.48249e-14 0.037703 0.113635 -7.01345e-14 0.0674929 0.110858 8.87996e-15 
-0.380326 0.485548 9.7635e-16 0.143523 0.216519 9.78591e-16 0.204566 0.172638 7.99923e-14 
-0.205584 0.178029 2.46819e-14 0.0165436 0.139171 -6.22323e-14 -0.0338103 0.133459 -3.85298e-14 
0.255167 0.172086 -5.43318e-14 -0.0819165 0.114583 0.0254764 -0.100144 0.153771 9.78584e-16 
0.0808479 0.158322 -7.80359e-14 0.0931124 0.163339 7.99923e-14 -0.0534662 -0.0888359 -3.8529e-14 
-0.0400439 -0.10397 5.62866e-14 0.0395325 -0.0270917 -5.43325e-14 0.0455602 0.163079 9.77821e-16 
0.00996573 0.0386905 2.46827e-14 0.0223214 0.0417926 3.25833e-14 0.163588 -0.0422013 7.20901e-14 
0.0454476 0.170612 7.20909e-14 0.0288019 -0.0669925 -0.0429823 0.209927 -0.119578 0.00126815 
0.00308003 -0.342322 -0.0296771 -0.0573863 -0.244842 1.37204e-12 -0.0733486 -0.185681 -5.20335e-14 
0.058916 -0.199315 6.66945e-14 0.00360401 -0.202338 -2.08957e-10 -0.0489937 -0.15667 4.08862e-14 
0.0458811 -0.17868 -4.11573e-16 -0.0964228 -0.167457 -1.07378e-14 -0.0199315 -0.19591 3.01877e-10 
-0.0301607 -0.217836 4.60472e-14 -0.325288 -0.240484 7.18587e-14 -0.0333581 -0.105801 -9.46822e-09 
0.0257262 -0.141495 2.02368e-14 -0.0160526 -0.297898 -0.0583526 -0.0140938 -0.142998 -8.3007e-14 
0.00664466 -0.113325 -2.09818e-05 -0.0320635 -0.0965842 -1.50127e-09 0.0785265 -0.170604 0.00423916 
0.106383 -0.145979 -0.0142468 -0.117727 -0.146307 -0.0152749 -0.0874134 -0.156884 -0.182878 
-0.0427512 -0.085448 5.63704e-14 0.0362645 -0.0915403 -0.00363219 -0.0677734 -0.390935 0.056158 
0.0420153 -0.114841 0.00317212 -0.0321548 -0.129125 5.65411e-05 0.00368913 -0.0250794 -3.57691e-06 
0.0116738 -0.0444327 2.38937e-05 -0.111939 -0.108792 -1.15282e-06 -0.0556622 -0.0696509 -2.1061e-14 
-0.0120524 -0.15705 -2.0765e-14 0.0649338 -0.103674 4.74947e-15 0.0332398 -0.0174985 6.4649e-12 
0.0273302 -0.351626 -0.0883467 -0.0477166 -0.0321716 0.0486513 0.0815681 -0.388 0.0849579 
-0.142141 -0.131205 0.186241 0.0622794 -0.0177468 -0.157728 0.000192439 -0.0311631 0.00202687 
0.0676481 -0.158577 -5.96165e-06 0.120592 -0.0390475 3.33909e-12 -0.226406 -0.0263306 3.57209e-14 
-0.0493103 -0.0107287 -1.58989e-14 -0.307659 -0.327146 0.158127 0.0413392 -0.0151014 -0.155633 
-0.03616 -0.124284 -0.0120109 0.0906929 -0.124109 -0.0434671 -0.000712298 -0.0209097 -0.135874 
-0.0329044 -0.0725513 -0.0985714 0.00575691 -0.0740545 0.00132156 -0.105857 -0.0367046 0.124592 
0.115794 -0.149719 -0.166976 -0.0160133 -0.0648006 0.062735 0.162366 -0.0655973 7.26664e-08 
0.179246 -0.0547185 2.34679e-13 0.191688 -0.0361798 -4.12611e-16 -0.00846609 0.00767038 0.00161721 
0.00123149 -0.0539373 -0.039303 0.112219 -0.0466326 -0.00861474 0.0126235 -0.117612 3.47441e-10 
-0.047988 0.0121799 0.0101458 0.0243303 -0.105995 0.0436765 -0.127943 0.0844073 -0.229589 
-0.0026482 0.0286342 -0.25965 0.091237 0.148009 -0.0324617 0.0514815 -0.104352 0.0223486 
0.11581 -0.0619797 -4.18766e-10 0.120154 -0.0159402 8.87564e-10 0.175795 -0.0260702 -5.20324e-14 
-0.12054 -0.0303214 -1.66545e-10 -0.0864445 -0.0379326 -7.58154e-09 -0.174855 0.158513 -0.814924 
-0.106348 -0.034864 -0.00757236 -0.0576225 0.0455873 -0.0414794 -0.00155458 -0.0356017 0.000508318 