# vtk DataFile Version 4.0
Generated by LIGGGHTS
ASCII
DATASET POLYDATA
POINTS 682 float
-0.0813512 -0.235651 -0.382153 -0.0646696 -0.152308 -0.0986127 -0.0200739 -0.154702 -0.0960869 
-0.0789745 -0.14956 -0.083714 -0.0194244 -0.123801 -0.0474764 -0.0455021 -0.139479 -0.0448485 
0.0891207 -0.117072 -0.0368201 -0.0505167 -0.126875 -0.032207 0.0563328 -0.121755 -0.0233892 
0.0630951 -0.116257 -0.0120525 0.0158864 -0.119401 -0.0113944 -0.0126958 -0.104568 -0.00219069 
0.0240525 -0.110142 0.00597993 -0.0238209 -0.106389 0.00847283 0.0164234 -0.109892 0.0061645 
0.0467086 -0.109039 0.00875663 0.0175571 -0.105092 0.0106681 0.035271 -0.0809838 0.0114983 
-0.0948535 -0.0795147 0.0114983 -0.0780718 -0.0771017 0.0114983 0.0110975 -0.0803409 0.0114983 
0.0401495 -0.077032 0.0114983 -0.0760841 -0.0743858 0.0114983 -0.0428128 -0.0760214 0.0114983 
-0.0237197 -0.0745832 0.0114983 0.0347566 -0.077028 0.0114983 0.0488029 -0.0761373 0.0114983 
0.0524266 -0.0763584 0.0114983 -0.0610689 -0.0732819 0.0114983 -0.0198182 -0.0714316 0.0114983 
0.0542799 -0.0713614 0.0114983 -0.092848 -0.0669459 0.0114983 -0.00310818 -0.0681416 0.0114983 
0.0208484 -0.0663762 0.0114983 0.0234083 -0.0696093 0.0114983 0.0738089 -0.0661959 0.0114983 
0.0227878 -0.0637415 0.0114983 0.028228 -0.0644284 0.0114983 -0.0211388 -0.0606608 0.0114983 
-0.0178532 -0.0597177 0.0114983 -0.013602 -0.0647945 0.0114983 -0.00440973 -0.059401 0.0114983 
0.0474081 -0.0597761 0.0114983 0.093315 -0.060246 0.0114983 -0.0198342 -0.0562838 0.0114983 
0.00807232 -0.0570869 0.0114983 0.0283135 -0.0585945 0.0114983 0.0476883 -0.0561462 0.0114983 
-0.0924369 -0.0542229 0.0114983 -0.0471879 -0.0554173 0.0114983 -0.0193474 -0.0531313 0.0114983 
0.0117419 -0.0544136 0.0115088 0.0190403 -0.0536045 0.0114983 0.0326778 -0.0551359 0.0114983 
-0.0942234 -0.0492859 0.0114983 -0.0819822 -0.0507409 0.0114983 -0.0506383 -0.0514688 0.0114983 
-0.0368942 -0.0499566 0.0114983 -0.028171 -0.0497524 0.0114983 -0.016517 -0.0514965 0.0114983 
9.46796e-05 -0.0515669 0.0114983 0.00399506 -0.0500924 0.0114983 0.0572366 -0.0504819 0.0114983 
-0.091397 -0.0482293 0.0114983 -0.087866 -0.0456164 0.0114983 -0.0446395 -0.0463057 0.0114829 
-0.0299985 -0.0454025 0.0114983 -0.0164753 -0.0448974 0.0114983 -0.0117068 -0.0488757 0.0115114 
0.0064412 -0.0480345 0.0114983 0.0117693 -0.046345 0.0114983 0.0294811 -0.0459735 0.0114983 
0.0625586 -0.0503094 0.0114983 -0.0415201 -0.0428789 0.0114983 -0.0508342 -0.0414405 0.0114983 
-0.0324342 -0.0414927 0.0114983 -0.0245483 -0.037843 0.0114983 -0.020667 -0.0378138 0.0114984 
-0.0193916 -0.0405394 0.0114983 0.0767087 -0.0381645 0.0114983 -0.0511413 -0.0368654 0.0114983 
-0.0290831 -0.0363937 0.0114983 -0.0147384 -0.0358482 0.0114983 0.00509912 -0.0357236 0.0114983 
0.0123454 -0.0361571 0.0114983 0.0277032 -0.0359445 0.0114983 -0.0143962 -0.0325983 0.0114983 
0.00965608 -0.0339487 0.0114983 0.0145018 -0.033593 0.0114983 0.0474839 -0.0313193 0.0114983 
-0.00519239 -0.0286956 0.0114983 0.00989095 -0.0298984 0.0114983 0.0302607 -0.0283291 0.0114983 
0.0468421 -0.0281198 0.0114983 0.0583054 -0.0291532 0.0114983 0.0643656 -0.027994 0.0114983 
-0.0418256 -0.023565 0.0114998 -0.00775635 -0.023366 0.011498 -0.00322479 -0.0257624 0.0114983 
0.00586604 -0.0266296 0.0114983 0.0252361 -0.026865 0.0114983 -0.0604261 -0.020533 0.0114983 
-0.0494232 -0.0209281 0.0114983 -0.0374142 -0.0211458 0.0114983 -0.00767708 -0.0202794 0.0114969 
-0.00475622 -0.0230067 0.0114983 -0.00133581 -0.0233283 0.0114973 0.0108034 -0.0228867 0.011492 
-0.0643812 -0.0174747 0.0114983 -0.0425701 -0.0194144 0.0114982 -0.0396893 -0.0167676 0.0114983 
-0.0333318 -0.0172229 0.0114983 0.0228748 -0.0189034 0.0115538 0.0307227 -0.0195813 0.0114946 
0.0432875 -0.0173335 0.01206 0.058072 -0.0158618 0.0114996 -0.0578961 -0.0161965 0.0114983 
-0.0254949 -0.0141687 0.0114983 -0.0100817 -0.0136693 0.0114955 -0.00209981 -0.0142211 0.0114983 
0.00416877 -0.0162424 0.0114983 0.00673795 -0.0127922 0.011498 0.0164557 -0.0166465 0.0115371 
0.0234389 -0.0150731 0.0119919 0.0417709 -0.0136461 0.0124475 -0.065971 -0.0107269 0.0114983 
-0.0628758 -0.0117712 0.0114984 -0.0145065 -0.0105737 0.0114943 -0.010364 -0.0106893 0.0114969 
-0.00265168 -0.0102323 0.0115023 -4.15787e-06 -0.0116993 0.0115417 0.0023575 -0.0097909 0.0114983 
0.00597141 -0.00978399 0.0114983 0.0126391 -0.00813201 0.0114984 0.015745 -0.0123264 0.01173 
0.0192078 -0.0108453 0.0123115 0.0304211 -0.0119284 0.0114983 -0.0322765 -0.00663911 0.0114983 
-0.022712 -0.00794232 0.0115267 -0.0208608 -0.00557789 0.0115064 -0.0155471 -0.00680694 0.0114944 
-0.0112201 -0.00781817 0.0115166 -0.00760245 -0.00709439 0.0114983 -0.00228994 -0.00649273 0.0114984 
0.00443389 -0.00708127 0.0114835 0.0505246 -0.00842951 0.0114983 0.0552252 -0.00812643 0.0114983 
-0.0741716 -0.00319806 0.0114983 -0.0707443 -0.00606243 0.0120887 -0.0524651 -0.00372849 0.0115919 
-0.0384869 -0.00245032 0.0114983 -0.0348403 -0.00366569 0.0114983 -0.0240142 -0.00408497 0.0124659 
-0.0129008 -0.00274242 0.0114983 -0.00412636 -0.0027512 0.0114863 0.00555263 -0.00413704 0.0115336 
0.0120813 -0.00419096 0.0114983 0.00953432 -0.00256997 0.0114934 0.0188094 -0.00337319 0.0114987 
0.0357504 -0.00404322 0.0114983 0.0558193 -0.00238498 0.0114983 0.062864 -0.00260473 0.0114983 
-0.0953992 -0.00184929 0.0114983 -0.0713153 0.000452338 0.0114983 -0.0338017 0.00106449 0.0114993 
-0.0296527 0.000416451 0.0116311 -0.00881802 -0.00100318 0.0114996 -0.000343512 -0.000901387 0.0115717 
0.0227224 0.00150043 0.0114984 0.0445621 -0.000638311 0.0114938 0.048429 -0.00117548 0.0114983 
-0.0560464 0.00385966 0.0115053 -0.0403816 0.00468384 0.0114984 -0.0367224 0.00423377 0.0114983 
-0.032261 0.00367463 0.0114983 -0.0298083 0.00549766 0.0114983 -0.0138954 0.00543566 0.0115231 
-0.00998714 0.00221987 0.0114981 -0.00628467 0.00348016 0.0114983 0.00223146 0.00361758 0.0114985 
0.0049844 0.00517863 0.011504 0.0096964 0.00227987 0.0114983 0.0195754 0.00535757 0.011793 
0.02405 0.00426915 0.0114983 0.0280237 0.00405207 0.0114983 0.0495643 0.00409686 0.0114983 
0.0525141 0.00472127 0.0114983 -0.0584529 0.00769535 0.0114983 -0.0467608 0.00825194 0.0114983 
-0.0442349 0.00561756 0.0114983 -0.0271346 0.00855213 0.0114987 -0.0159704 0.00761209 0.0114983 
-0.00528013 0.00686599 0.0116309 -0.00131728 0.00827161 0.0114983 0.0064307 0.00825427 0.0114922 
0.0079616 0.00562412 0.0114981 0.0165694 0.00649341 0.011546 0.0305652 0.00564972 0.0114986 
0.0458816 0.00897364 0.0114983 0.0463971 0.0056896 0.0114983 -0.0954736 0.011113 0.0114983 
-0.091483 0.010738 0.0114983 -0.026854 0.0115548 0.0114982 -0.0205621 0.0122878 0.0114978 
-0.0174386 0.010553 0.0124452 -0.0130607 0.00905261 0.0115276 -0.0108104 0.011295 0.0114838 
0.0068158 0.0112376 0.011496 0.0104285 0.00935165 0.011498 0.0153978 0.0115902 0.0115275 
0.0419225 0.0106052 0.0118045 0.046429 0.0122557 0.0114984 -0.068887 0.0142847 0.0114983 
-0.0407789 0.0138097 0.0114982 -0.0380953 0.0124669 0.0114981 -0.0155313 0.0129889 0.0114992 
-0.0144949 0.0161718 0.0114875 0.00134915 0.0148806 0.0115126 0.00376195 0.0130576 0.0114984 
0.0115276 0.0128744 0.0114983 0.0172319 0.0140412 0.0115913 0.0250618 0.0147925 0.011508 
0.053913 0.013138 0.0114983 0.0708242 0.0136864 0.0114983 -0.0352359 0.0172131 0.0115025 
-0.00659718 0.0156192 0.0115273 0.00361389 0.0170937 0.0115284 0.0130833 0.0167969 0.011498 
0.0196804 0.0185293 0.0117762 0.0227356 0.0185674 0.011498 0.045387 0.0172093 0.0114988 
-0.0793424 0.0220854 0.0114983 -0.0175384 0.0202257 0.0114723 -0.00636813 0.0214317 0.0114983 
-0.00337501 0.021939 0.0114983 -0.000231402 0.0210245 0.0114983 0.00391808 0.0205038 0.0114984 
0.00945778 0.0207737 0.0114983 0.0156443 0.020827 0.0114983 0.0281756 0.021428 0.0115138 
0.0429576 0.0209484 0.0114983 0.0527368 0.0194398 0.0114983 -0.0954955 0.02451 0.0114983 
-0.0912494 0.0236383 0.0114983 -0.0190152 0.0243063 0.0120383 7.05801e-05 0.0242826 0.0114993 
0.00457907 0.0262989 0.0114974 0.017499 0.0265071 0.0114983 0.0456435 0.0235922 0.0114983 
0.046314 0.0265498 0.0114983 -0.042727 0.0298732 0.0114983 -0.0404265 0.0278815 0.0114983 
-0.0380416 0.0303312 0.0114983 -0.0289217 0.0279473 0.0114983 0.00176803 0.0273462 0.0114983 
0.0286086 0.0288089 0.0115782 0.0353168 0.0273514 0.0114983 0.0392481 0.0314167 0.0114983 
-0.0944571 0.0304085 0.0114983 -0.0376014 0.033569 0.0114983 -0.0341 0.0310211 0.0114983 
-0.0309661 0.0311469 0.0114983 -0.0280384 0.0320046 0.0114983 -0.020623 0.0319938 0.0114983 
-0.0106108 0.031294 0.0114985 -0.00468691 0.0327085 0.0114986 0.00156163 0.0303467 0.0114983 
-0.00136845 0.0327475 0.0114983 0.00421169 0.0322245 0.0114983 0.0145883 0.0315379 0.0114983 
0.026298 0.034098 0.0114983 0.0349229 0.0305221 0.0114969 0.0360699 0.0334849 0.0114992 
0.0443792 0.033421 0.0114983 -0.0351318 0.0368335 0.0114983 -0.013063 0.0342576 0.0114983 
-0.00935524 0.0341646 0.0114983 0.0151551 0.0353333 0.0114983 0.0395682 0.0356045 0.0114983 
-0.0931939 0.0411932 0.0114983 -0.0342725 0.0412679 0.0114983 -0.0304621 0.038496 0.0114983 
0.0144082 0.0388152 0.0114983 0.0220483 0.039384 0.0114983 0.0659295 0.0411589 0.0114983 
-0.0279711 0.0423425 0.0114983 -0.0257949 0.0448925 0.0114983 -0.0221587 0.0459807 0.0114987 
-0.0167905 0.0442216 0.0114983 -0.0126208 0.0424037 0.0114983 -0.00961487 0.0422171 0.0114983 
-0.0762849 0.0471624 0.0114983 -0.0148797 0.0475652 0.0114983 0.00845225 0.0456874 0.0114988 
0.0745678 0.0464932 0.0114983 -0.0478124 0.0483494 0.0114983 -0.0285465 0.0512221 0.0114983 
0.019586 0.0513818 0.0114979 0.041317 0.0488589 0.0114983 0.0454854 0.048262 0.0114983 
0.0551489 0.0489007 0.0114983 -0.0219346 0.0539617 0.0114983 -0.0174929 0.0539999 0.0114983 
-0.00973384 0.0539728 0.0114983 0.00436946 0.0543136 0.0114983 0.00769873 0.0543064 0.0114983 
0.0402478 0.0557087 0.0114983 0.0421752 0.0529659 0.0114983 0.0578565 0.0543946 0.0114983 
-0.0905393 0.058182 0.0114983 0.00496009 0.0574112 0.0114983 0.0507902 0.0579135 0.0114983 
[...]
POINT_DATA 682
FIELD FieldData 7
id 1 682 int
48 82 160 282 30 89 12 6 105 
52 206 356 59 243 77 397 363 265 
9 137 112 393 343 229 73 10 200 
189 252 83 50 283 267 108 173 19 
328 76 18 8 386 307 319 125 90 
406 110 97 71 242 85 514 251 75 
47 179 290 281 268 161 192 333 11 
45 107 202 32 152 498 458 418 433 
526 425 353 378 218 308 240 23 358 
314 371 475 101 63 352 438 487 448 
540 214 525 292 164 249 368 460 120 
263 109 211 197 510 172 127 521 339 
436 84 344 320 603 482 585 305 205 
476 303 72 123 340 139 610 538 64 
153 25 499 146 459 294 278 279 524 
500 366 36 527 315 250 150 126 185 
373 384 295 114 495 227 228 412 474 
473 395 456 288 244 563 355 342 201 
217 74 96 226 592 121 163 346 302 
174 239 404 162 488 332 472 564 293 
275 447 586 579 573 420 411 204 334 
253 407 199 576 468 341 484 512 213 
136 369 210 61 316 604 419 552 266 
296 539 360 461 548 291 289 432 231 
370 421 497 485 392 198 165 257 264 
508 430 537 424 589 309 86 513 379 
140 230 519 536 318 408 422 329 33 
277 471 331 483 382 171 357 276 178 
255 457 445 449 330 450 133 385 102 
321 437 186 354 99 100 238 463 215 
399 462 87 22 381 38 151 70 49 
122 423 405 148 509 304 21 60 203 
269 317 383 177 256 372 396 212 51 
65 398 241 159 237 20 394 224 254 
225 134 223 176 98 39 62 88 135 
306 26 216 175 58 188 367 46 111 
191 184 149 7 113 166 138 34 410 
57 147 35 95 37 24 187 301 124 
13 208 4 2 324 119 261 262 154 
222 258 416 68 168 375 325 260 132 
409 167 92 142 300 529 481 144 313 
523 348 40 16 541 42 528 336 285 
591 365 414 588 157 546 156 464 494 
219 489 452 413 559 67 323 568 543 
15 467 335 248 29 502 600 496 587 
595 615 506 550 429 155 14 578 337 
571 387 129 566 402 284 507 274 131 
465 572 141 364 443 612 611 560 504 
361 3 403 181 442 193 391 347 469 
444 535 235 630 415 247 362 531 455 
602 246 380 170 115 574 614 417 207 
79 575 158 617 533 562 376 91 286 
624 427 582 326 390 492 621 351 480 
232 94 501 311 195 466 180 628 522 
221 350 245 145 81 190 511 532 544 
545 451 271 183 345 116 27 431 565 
516 298 41 434 259 359 520 5 491 
440 117 66 236 490 55 577 613 377 
605 454 580 590 17 287 338 106 618 
322 270 426 273 555 400 327 547 515 
554 280 220 169 534 428 44 435 401 
272 446 53 486 209 551 349 503 310 
54 196 103 69 312 478 297 80 479 
128 388 182 93 43 453 374 299 130 
194 234 28 104 1 78 56 118 233 
31 389 477 518 439 593 594 598 583 
623 561 626 517 557 599 441 608 596 
616 625 627 584 609 597 143 570 505 
542 629 620 558 567 493 553 530 631 
556 607 470 619 601 642 606 549 581 
635 622 638 639 634 636 569 643 633 
632 637 655 640 641 651 646 656 652 
647 653 648 650 654 645 649 660 644 
669 657 661 659 664 658 663 667 662 
665 666 678 668 679 674 676 677 681 
671 670 672 675 673 682 680 
type 1 682 int
1 1 1 1 1 1 1 1 1 
1 1 1 1 1 1 1 1 1 
1 1 1 1 1 1 1 1 1 
1 1 1 1 1 1 1 1 1 
1 1 1 1 1 1 1 1 1 
1 1 1 1 1 1 1 1 1 
1 1 1 1 1 1 1 1 1 
1 1 1 1 1 1 1 1 1 
1 1 1 1 1 1 1 1 1 
1 1 1 1 1 1 1 1 1 
1 1 1 1 1 1 1 1 1 
1 1 1 1 1 1 1 1 1 
1 1 1 1 1 1 1 1 1 
1 1 1 1 1 1 1 1 1 
1 1 1 1 1 1 1 1 1 
1 1 1 1 1 1 1 1 1 
1 1 1 1 1 1 1 1 1 
1 1 1 1 1 1 1 1 1 
1 1 1 1 1 1 1 1 1 
1 1 1 1 1 1 1 1 1 
1 1 1 1 1 1 1 1 1 
1 1 1 1 1 1 1 1 1 
1 1 1 1 1 1 1 1 1 
1 1 1 1 1 1 1 1 1 
1 1 1 1 1 1 1 1 1 
1 1 1 1 1 1 1 1 1 
1 1 1 1 1 1 1 1 1 
1 1 1 1 1 1 1 1 1 
1 1 1 1 1 1 1 1 1 
1 1 1 1 1 1 1 1 1 
1 1 1 1 1 1 1 1 1 
1 1 1 1 1 1 1 1 1 
1 1 1 1 1 1 1 1 1 
1 1 1 1 1 1 1 1 1 
1 1 1 1 1 1 1 1 1 
1 1 1 1 1 1 1 1 1 
1 1 1 1 1 1 1 1 1 
1 1 1 1 1 1 1 1 1 
1 1 1 1 1 1 1 1 1 
1 1 1 1 1 1 1 1 1 
1 1 1 1 1 1 1 1 1 
1 1 1 1 1 1 1 1 1 
1 1 1 1 1 1 1 1 1 
1 1 1 1 1 1 1 1 1 
1 1 1 1 1 1 1 1 1 
1 1 1 1 1 1 1 1 1 
1 1 1 1 1 1 1 1 1 
1 1 1 1 1 1 1 1 1 
1 1 1 1 1 1 1 1 1 
1 1 1 1 1 1 1 1 1 
1 1 1 1 1 1 1 1 1 
1 1 1 1 1 1 1 1 1 
1 1 1 1 1 1 1 1 1 
1 1 1 1 1 1 1 1 1 
1 1 1 1 1 1 1 1 1 
1 1 1 1 1 1 1 1 1 
1 1 1 1 1 1 1 1 1 
1 1 1 1 1 1 1 1 1 
1 1 1 1 1 1 1 1 1 
1 1 1 1 1 1 1 1 1 
1 1 1 1 1 1 1 1 1 
1 1 1 1 1 1 1 1 1 
1 1 1 1 1 1 1 1 1 
1 1 1 1 1 1 1 1 1 
1 1 1 1 1 1 1 1 1 
1 1 1 1 1 1 1 1 1 
1 1 1 1 1 1 1 1 1 
1 1 1 1 1 1 1 1 1 
1 1 1 1 1 1 1 1 1 
1 1 1 1 1 1 1 1 1 
1 1 1 1 1 1 1 1 1 
1 1 1 1 1 1 1 1 1 
1 1 1 1 1 1 1 1 1 
1 1 1 1 1 1 1 1 1 
1 1 1 1 1 1 1 1 1 
1 1 1 1 1 1 1 
i 3 682 int
0 0 0 0 0 0 0 0 0 
0 0 0 0 0 0 0 0 0 
0 0 0 0 0 0 0 0 0 
0 0 0 0 0 0 0 0 0 
0 0 0 0 0 0 0 0 0 
0 0 0 0 0 0 0 0 0 
0 0 0 0 0 0 0 0 0 
0 0 0 0 0 0 0 0 0 
0 0 0 0 0 0 0 0 0 
0 0 0 0 0 0 0 0 0 
0 0 0 0 0 0 0 0 0 
0 0 0 0 0 0 0 0 0 
0 0 0 0 0 0 0 0 0 
0 0 0 0 0 0 0 0 0 
0 0 0 0 0 0 0 0 0 
0 0 0 0 0 0 0 0 0 
0 0 0 0 0 0 0 0 0 
0 0 0 0 0 0 0 0 0 
0 0 0 0 0 0 0 0 0 
0 0 0 0 0 0 0 0 0 
0 0 0 0 0 0 0 0 0 
0 0 0 0 0 0 0 0 0 
0 0 0 0 0 0 0 0 0 
0 0 0 0 0 0 0 0 0 
0 0 0 0 0 0 0 0 0 
0 0 0 0 0 0 0 0 0 
0 0 0 0 0 0 0 0 0 
0 0 0 0 0 0 0 0 0 
0 0 0 0 0 0 0 0 0 
0 0 0 0 0 0 0 0 0 
0 0 0 0 0 0 0 0 0 
0 0 0 0 0 0 0 0 0 
0 0 0 0 0 0 0 0 0 
0 0 0 0 0 0 0 0 0 
0 0 0 0 0 0 0 0 0 
0 0 0 0 0 0 0 0 0 
0 0 0 0 0 0 0 0 0 
0 0 0 0 0 0 0 0 0 
0 0 0 0 0 0 0 0 0 
0 0 0 0 0 0 0 0 0 
0 0 0 0 0 0 0 0 0 
0 0 0 0 0 0 0 0 0 
0 0 0 0 0 0 0 0 0 
0 0 0 0 0 0 0 0 0 
0 0 0 0 0 0 0 0 0 
0 0 0 0 0 0 0 0 0 
0 0 0 0 0 0 0 0 0 
0 0 0 0 0 0 0 0 0 
0 0 0 0 0 0 0 0 0 
0 0 0 0 0 0 0 0 0 
0 0 0 0 0 0 0 0 0 
0 0 0 0 0 0 0 0 0 
0 0 0 0 0 0 0 0 0 
0 0 0 0 0 0 0 0 0 
0 0 0 0 0 0 0 0 0 
0 0 0 0 0 0 0 0 0 
0 0 0 0 0 0 0 0 0 
0 0 0 0 0 0 0 0 0 
0 0 0 0 0 0 0 0 0 
0 0 0 0 0 0 0 0 0 
0 0 0 0 0 0 0 0 0 
0 0 0 0 0 0 0 0 0 
0 0 0 0 0 0 0 0 0 
0 0 0 0 0 0 0 0 0 
0 0 0 0 0 0 0 0 0 
0 0 0 0 0 0 0 0 0 
0 0 0 0 0 0 0 0 0 
0 0 0 0 0 0 0 0 0 
0 0 0 0 0 0 0 0 0 
0 0 0 0 0 0 0 0 0 
0 0 0 0 0 0 0 0 0 
0 0 0 0 0 0 0 0 0 
0 0 0 0 0 0 0 0 0 
0 0 0 0 0 0 0 0 0 
0 0 0 0 0 0 0 0 0 
0 0 0 0 0 0 0 0 0 
0 0 0 0 0 0 0 0 0 
0 0 0 0 0 0 0 0 0 
0 0 0 0 0 0 0 0 0 
0 0 0 0 0 0 0 0 0 
0 0 0 0 0 0 0 0 0 
0 0 0 0 0 0 0 0 0 
0 0 0 0 0 0 0 0 0 
0 0 0 0 0 0 0 0 0 
0 0 0 0 0 0 0 0 0 
0 0 0 0 0 0 0 0 0 
0 0 0 0 0 0 0 0 0 
0 0 0 0 0 0 0 0 0 
0 0 0 0 0 0 0 0 0 
0 0 0 0 0 0 0 0 0 
0 0 0 0 0 0 0 0 0 
0 0 0 0 0 0 0 0 0 
0 0 0 0 0 0 0 0 0 
0 0 0 0 0 0 0 0 0 
0 0 0 0 0 0 0 0 0 
0 0 0 0 0 0 0 0 0 
0 0 0 0 0 0 0 0 0 
0 0 0 0 0 0 0 0 0 
0 0 0 0 0 0 0 0 0 
0 0 0 0 0 0 0 0 0 
0 0 0 0 0 0 0 0 0 
0 0 0 0 0 0 0 0 0 
0 0 0 0 0 0 0 0 0 
0 0 0 0 0 0 0 0 0 
0 0 0 0 0 0 0 0 0 
0 0 0 0 0 0 0 0 0 
0 0 0 0 0 0 0 0 0 
0 0 0 0 0 0 0 0 0 
0 0 0 0 0 0 0 0 0 
0 0 0 0 0 0 0 0 0 
0 0 0 0 0 0 0 0 0 
0 0 0 0 0 0 0 0 0 
0 0 0 0 0 0 0 0 0 
0 0 0 0 0 0 0 0 0 
0 0 0 0 0 0 0 0 0 
0 0 0 0 0 0 0 0 0 
0 0 0 0 0 0 0 0 0 
0 0 0 0 0 0 0 0 0 
0 0 0 0 0 0 0 0 0 
0 0 0 0 0 0 0 0 0 
0 0 0 0 0 0 0 0 0 
0 0 0 0 0 0 0 0 0 
0 0 0 0 0 0 0 0 0 
0 0 0 0 0 0 0 0 0 
0 0 0 0 0 0 0 0 0 
0 0 0 0 0 0 0 0 0 
0 0 0 0 0 0 0 0 0 
0 0 0 0 0 0 0 0 0 
0 0 0 0 0 0 0 0 0 
0 0 0 0 0 0 0 0 0 
0 0 0 0 0 0 0 0 0 
0 0 0 0 0 0 0 0 0 
0 0 0 0 0 0 0 0 0 
0 0 0 0 0 0 0 0 0 
0 0 0 0 0 0 0 0 0 
0 0 0 0 0 0 0 0 0 
0 0 0 0 0 0 0 0 0 
0 0 0 0 0 0 0 0 0 
0 0 0 0 0 0 0 0 0 
0 0 0 0 0 0 0 0 0 
0 0 0 0 0 0 0 0 0 
0 0 0 0 0 0 0 0 0 
0 0 0 0 0 0 0 0 0 
0 0 0 0 0 0 0 0 0 
0 0 0 0 0 0 0 0 0 
0 0 0 0 0 0 0 0 0 
0 0 0 0 0 0 0 0 0 
0 0 0 0 0 0 0 0 0 
0 0 0 0 0 0 0 0 0 
0 0 0 0 0 0 0 0 0 
0 0 0 0 0 0 0 0 0 
0 0 0 0 0 0 0 0 0 
0 0 0 0 0 0 0 0 0 
0 0 0 0 0 0 0 0 0 
0 0 0 0 0 0 0 0 0 
0 0 0 0 0 0 0 0 0 
0 0 0 0 0 0 0 0 0 
0 0 0 0 0 0 0 0 0 
0 0 0 0 0 0 0 0 0 
0 0 0 0 0 0 0 0 0 
0 0 0 0 0 0 0 0 0 
0 0 0 0 0 0 0 0 0 
0 0 0 0 0 0 0 0 0 
0 0 0 0 0 0 0 0 0 
0 0 0 0 0 0 0 0 0 
0 0 0 0 0 0 0 0 0 
0 0 0 0 0 0 0 0 0 
0 0 0 0 0 0 0 0 0 
0 0 0 0 0 0 0 0 0 
0 0 0 0 0 0 0 0 0 
0 0 0 0 0 0 0 0 0 
0 0 0 0 0 0 0 0 0 
0 0 0 0 0 0 0 0 0 
0 0 0 0 0 0 0 0 0 
0 0 0 0 0 0 0 0 0 
0 0 0 0 0 0 0 0 0 
0 0 0 0 0 0 0 0 0 
0 0 0 0 0 0 0 0 0 
0 0 0 0 0 0 0 0 0 
0 0 0 0 0 0 0 0 0 
0 0 0 0 0 0 0 0 0 
0 0 0 0 0 0 0 0 0 
0 0 0 0 0 0 0 0 0 
0 0 0 0 0 0 0 0 0 
0 0 0 0 0 0 0 0 0 
0 0 0 0 0 0 0 0 0 
0 0 0 0 0 0 0 0 0 
0 0 0 0 0 0 0 0 0 
0 0 0 0 0 0 0 0 0 
0 0 0 0 0 0 0 0 0 
0 0 0 0 0 0 0 0 0 
0 0 0 0 0 0 0 0 0 
0 0 0 0 0 0 0 0 0 
0 0 0 0 0 0 0 0 0 
0 0 0 0 0 0 0 0 0 
0 0 0 0 0 0 0 0 0 
0 0 0 0 0 0 0 0 0 
0 0 0 0 0 0 0 0 0 
0 0 0 0 0 0 0 0 0 
0 0 0 0 0 0 0 0 0 
0 0 0 0 0 0 0 0 0 
0 0 0 0 0 0 0 0 0 
0 0 0 0 0 0 0 0 0 
0 0 0 0 0 0 0 0 0 
0 0 0 0 0 0 0 0 0 
0 0 0 0 0 0 0 0 0 
0 0 0 0 0 0 0 0 0 
0 0 0 0 0 0 0 0 0 
0 0 0 0 0 0 0 0 0 
0 0 0 0 0 0 0 0 0 
0 0 0 0 0 0 0 0 0 
0 0 0 0 0 0 0 0 0 
0 0 0 0 0 0 0 0 0 
0 0 0 0 0 0 0 0 0 
0 0 0 0 0 0 0 0 0 
0 0 0 0 0 0 0 0 0 
0 0 0 0 0 0 0 0 0 
0 0 0 0 0 0 0 0 0 
0 0 0 0 0 0 0 0 0 
0 0 0 0 0 0 0 0 0 
0 0 0 0 0 0 0 0 0 
0 0 0 0 0 0 0 0 0 
0 0 0 0 0 0 0 0 0 
0 0 0 0 0 0 0 0 0 
0 0 0 0 0 0 0 0 0 
0 0 0 0 0 0 0 0 0 
0 0 0 0 0 0 0 0 0 
0 0 0 
v 3 682 double
-0.176432 -0.479133 -2.77911 -0.150544 -0.34945 -1.46983 -0.00995307 -0.36973 -1.45287 
-0.235423 -0.349844 -1.36714 -0.0504897 -0.215186 -1.08475 -0.219404 -0.368802 -1.05144 
-0.0652621 -0.178092 -0.975822 -0.130769 -0.28505 -0.926016 0.110456 -0.254487 -0.839098 
0.119796 -0.234867 -0.679761 0.0931829 -0.278324 -0.684651 0.0372947 -0.0785268 -0.515758 
0.106629 -0.303408 -0.329056 -0.0723875 -0.258201 -0.243654 0.0320011 -0.30201 -0.324399 
0.161289 -0.384775 -0.231947 0.0225701 -0.264759 -0.189416 0.0729133 -0.191106 -4.64296e-14 
0.0280013 -0.128656 7.21207e-07 -0.157703 -0.152738 -7.80426e-14 0.00527742 -0.179249 -1.14188e-10 
0.077151 -0.155151 -1.48249e-14 -0.163731 -0.131249 7.5803e-11 -0.0883677 -0.164229 -5.43318e-14 
-0.0598722 -0.124393 9.77819e-16 0.0662837 -0.176141 -1.48249e-14 0.190628 -0.180203 2.46819e-14 
0.175599 -0.259601 7.99923e-14 -0.116977 -0.146521 -3.06277e-14 -0.0137142 -0.123754 -6.92356e-15 
0.116578 -0.107457 -6.92278e-15 0.0391133 -0.100647 4.83852e-14 -0.0712484 -0.178451 4.8386e-14 
-0.0261645 -0.126083 1.02924e-11 0.0407966 -0.144687 -4.09156e-14 0.152919 -0.112596 7.99923e-14 
0.0441874 -0.142081 -1.15089e-11 0.039098 -0.131888 6.41895e-14 -0.0546401 -0.0989205 9.77824e-16 
-0.0356301 -0.116554 -1.48249e-14 -0.0119715 -0.398375 9.77822e-16 -0.0834311 -0.129916 5.62874e-14 
0.127005 -0.163009 3.25825e-14 -0.0316076 -0.189082 -1.48249e-14 -0.013493 -0.0783549 9.77811e-16 
-0.0768347 -0.242228 8.87995e-15 0.0487322 -0.110069 -6.22331e-14 0.0749032 -0.13184 7.20901e-14 
0.0308279 -0.0492269 -1.48249e-14 -0.146195 -0.170031 3.96835e-10 -0.0252605 -0.0719961 -7.01345e-14 
-0.00673881 -0.226782 -0.00596861 0.0528025 -0.0461127 -7.01337e-14 0.0193322 -0.0994086 7.20901e-14 
0.0261318 -0.0764918 -3.85298e-14 -0.207955 -0.100323 1.67805e-14 -0.13632 -0.124816 -1.95929e-09 
-0.0918492 -0.106058 -7.01337e-14 -0.0515001 -0.0874587 5.62866e-14 -0.0123001 -0.0813551 4.8386e-14 
-0.0113509 -0.129064 -3.06269e-14 0.00174516 -0.123609 -6.22331e-14 0.0819189 -0.0980738 -7.80359e-14 
-0.0614873 -0.0973283 9.77814e-16 -0.0516919 -0.0955993 -7.3981e-13 -0.0760068 -0.124132 0.0235009 
-0.0762823 -0.0847877 -6.22331e-14 -0.108736 -0.0856684 -7.01337e-14 -0.0948214 -0.213105 -0.00196011 
0.00656257 -0.125271 1.67805e-14 0.0489767 -0.134619 -8.59372e-14 -0.0696364 -0.0547327 -1.5075e-07 
0.428103 -0.354175 -0.000385787 -0.0677278 -0.0574202 1.96458e-06 -0.253979 -0.161806 2.90827e-06 
-0.0490402 -0.156876 -7.80359e-14 -0.053848 -0.0704437 -6.92278e-15 -0.0408142 -0.0455226 -4.45452e-05 
-0.0667758 -0.0631155 4.50075e-05 0.1155 -0.0691733 1.67805e-14 -0.26384 -0.0904289 9.17642e-08 
-0.0422761 -0.0507528 9.78597e-16 -0.0638963 -0.086607 -7.80359e-14 0.0520653 -0.148935 8.08385e-07 
0.00600633 -0.147214 -6.22331e-14 0.192128 -0.0893434 7.20909e-14 -0.0323953 -0.0778929 9.78593e-16 
0.0139567 -0.0998245 -4.64296e-14 0.0200348 -0.146984 -6.22331e-14 0.145157 -0.0391725 -2.27271e-14 
0.00270132 -0.0347683 0.000483419 -0.0357996 -0.123486 -0.000656715 0.0599066 -0.113818 -2.27271e-14 
0.124499 -0.0363335 3.34335e-08 0.121053 -0.027244 1.67798e-14 0.181906 -0.0473008 5.62874e-14 
-0.0669706 -0.0272392 0.0014142 -0.0137769 0.00823922 7.12977e-05 -0.0305893 -0.0508022 8.53717e-07 
-0.0532132 -0.111164 7.20901e-14 0.0110105 -0.0768238 3.61153e-13 -0.114304 -0.036751 -7.80359e-14 
-0.138836 -0.0540601 -3.85298e-14 -0.0274457 -0.0612313 6.1129e-09 -0.0394759 -0.103782 0.00158357 
-0.0216774 -0.0337273 -1.40715e-07 0.014663 -0.0718129 0.0162162 0.0775808 -0.0414071 -0.0107093 
-0.188917 -0.0741312 -1.10339e-12 -0.0945959 -0.04523 0.000374978 -0.0717492 -0.0273378 3.35208e-09 
-0.0419311 -0.0644742 8.87996e-15 0.105621 -0.0438247 -0.110111 0.0935392 -0.0642666 0.0152614 
0.501556 0.0746821 0.0352476 0.0877964 -0.0136133 0.00109054 -0.0788297 -0.153578 5.93145e-10 
-0.0483649 -0.105364 4.74862e-13 -0.0823283 -0.0176735 0.00971224 -0.0588088 0.00314633 4.83807e-14 
0.0302263 -0.0503253 -6.8351e-07 0.0839707 0.00352484 0.000393357 0.0907069 -0.0565558 0.0206628 
0.0392557 0.0446035 0.079817 0.209741 0.105748 0.0575267 -0.129932 -0.0131509 -4.64296e-14 
-0.124963 -0.00587703 -0.000144807 -0.0715544 0.00999008 7.14198e-05 -0.0602163 0.00311967 0.000961372 
-0.0214839 0.0102542 0.00190761 0.00491427 -0.0054841 0.0117909 0.00315185 -0.0104227 -4.15157e-06 
0.0418575 0.0106567 3.367e-06 -0.00920674 0.114279 0.000236944 0.0107006 0.00724903 0.0440038 
0.124033 0.0236059 -0.142667 0.0815196 -0.0150793 -1.90724e-07 -0.0789325 0.0334005 -6.57292e-14 
-0.0639035 0.0231522 -0.0140339 -0.0575098 0.0426613 0.00430307 -0.10968 -0.107202 -0.0314578 
-0.00448081 0.0402694 0.0201238 -0.0086898 -0.0668637 1.25699e-05 -0.0224064 0.0143321 -0.00016869 
0.0298949 -0.0222334 -0.00122733 0.110329 0.0286604 -7.01345e-14 0.145883 0.00230105 4.04847e-14 
-0.152383 -0.00313868 -6.22331e-14 -0.422662 -0.124713 -0.0421932 -0.0543851 -0.0295656 0.0500354 
-0.0618661 0.014415 -6.92404e-15 -0.0320423 0.00965702 1.01868e-16 -0.129999 -0.0573031 0.0526 
-0.014742 -0.0313913 4.05581e-07 -0.00837455 -0.0203305 0.0249324 0.0313706 -0.00837226 0.0259818 
0.0315171 -0.0356391 4.43997e-05 0.00203078 -0.0733002 -0.00632267 0.091648 0.0476933 -0.000574026 
0.100257 0.00280619 -6.92277e-15 0.119178 0.0803878 -3.54392e-10 0.141297 -0.0149811 -6.92355e-15 
0.00792872 -0.035577 -7.01337e-14 -0.152815 0.0208366 -4.64288e-14 -0.101418 0.0905469 -0.000933547 
-0.0868196 0.0413318 -0.00646306 0.00585732 0.0254659 0.0134039 0.00933776 0.0288415 0.00335306 
0.0200403 0.0224865 2.40106e-06 0.145727 -0.044544 0.0310815 0.111336 -0.055127 7.99923e-14 
-0.0530466 -0.0665758 0.00834796 -0.0592666 -0.0154453 -0.000261837 -0.0533065 0.0338597 -6.55549e-12 
-0.09737 0.0922259 6.01403e-05 -0.0391712 0.0277309 3.13202e-09 -0.00309377 0.0516299 0.00347187 
-0.0422263 0.0201708 0.000237371 0.0475395 -0.00833832 1.12725e-06 0.0225226 0.0703735 0.00297336 
0.00562735 -0.0163144 -0.0111338 0.0635624 -0.0117664 3.25825e-14 0.0386564 0.0723547 -0.000220825 
0.0466676 0.012091 1.52414e-07 0.0702804 -0.0180738 4.1237e-06 0.10882 -0.0348095 -1.35901e-10 
0.104993 -0.0261725 -4.64288e-14 -0.123357 0.00969163 4.47441e-14 -0.0707427 -0.0216026 -6.22324e-14 
-0.0774216 0.00436337 2.46827e-14 -0.0456213 -0.000284784 -0.000736602 -0.027556 0.0293945 -0.000115403 
0.00492503 0.181823 0.0545136 0.0141838 0.00567176 -1.4142e-13 0.0517084 0.00147949 -0.0125862 
0.00370063 -0.0255586 2.31934e-05 -0.0437614 -0.015865 -0.00492769 0.0473745 0.0143466 0.00656004 
0.141747 0.0284906 3.19183e-07 0.0818516 -0.0145069 5.24553e-08 0.0155589 -0.0293589 -6.22331e-14 
-0.244169 0.0115509 -4.64288e-14 -0.0783457 0.0107457 -0.0151729 -0.0893362 0.0450293 0.000515218 
-0.0183092 0.02695 0.0586887 0.0422654 0.0569743 0.0247407 -0.0985726 0.0807623 0.0121185 
-0.0432725 0.00839976 -0.005402 0.00208009 0.012064 0.000199612 0.088414 0.00211239 0.00545902 
0.0293558 0.0932379 -0.00606206 0.190797 0.0167177 -0.000603068 -0.126487 -0.000192742 -6.92278e-15 
-0.17229 -0.0671643 -0.000149317 -0.120459 -0.0452896 -0.0356669 -0.110342 0.035465 -0.00208642 
-0.0737602 0.142045 0.00644231 0.0579554 0.045832 -0.0217581 0.0325901 0.00384263 0.000202343 
-0.0147081 0.0581691 0.000252845 0.0788753 0.0696403 -0.00288693 0.0963678 0.0539969 -0.00405239 
0.120675 0.00355795 -4.64296e-14 0.154376 -0.053045 9.77819e-16 -0.0537609 -0.0733607 0.00542674 
0.00562065 -0.140032 -0.0507218 0.0703093 0.01656 0.0176719 -0.0917563 -0.0251394 -0.00156091 
0.0335305 0.0254755 -0.0708093 0.0565394 -0.00662722 0.00394289 0.149206 0.0633838 -0.00316985 
-0.167766 0.0350649 7.20901e-14 0.0113715 0.0605286 -0.00810848 -0.00852757 0.0578813 1.84261e-06 
0.00952521 0.00556221 5.70164e-06 0.0246933 0.0117841 2.49144e-14 0.0387962 -0.0443448 0.000198009 
0.109769 0.0477153 2.42269e-12 0.0506059 0.0752031 -4.04997e-11 -0.0286158 0.0647838 -0.073204 
0.14084 0.133603 -2.30124e-14 0.171406 0.00122047 4.04854e-14 0.00641046 0.021477 -7.01337e-14 
0.0430987 0.0440392 8.87996e-15 -0.112222 0.133594 -0.0149922 -0.0308364 0.0402465 0.00455571 
0.00124256 0.0432179 0.00192761 0.00959076 0.0692568 4.87812e-12 0.128869 0.0635719 2.97779e-05 
0.0994531 0.076691 5.14144e-06 -0.0517196 0.0318749 -4.64288e-14 -0.0496264 0.0324816 4.83852e-14 
-0.0603816 0.0798277 9.1226e-05 -0.0227466 0.0131217 1.27015e-13 0.00169075 0.0440027 -0.000672975 
0.283182 0.302591 0.0598386 0.138708 0.0999108 -3.06269e-14 0.140652 0.162634 4.041e-14 
0.015963 0.046558 -5.43325e-14 -0.0553639 0.0889158 -4.64486e-11 -0.0340348 0.0463156 2.08723e-08 
-0.0210248 0.0405609 -3.1953e-07 -0.0250895 0.0874158 4.35394e-06 -0.0168686 0.082855 4.04854e-14 
0.0284606 0.0313675 0.00199607 0.0428106 0.121033 0.00249481 0.0159768 0.0473627 -3.29373e-05 
0.0151873 0.0796991 -1.13895e-05 0.00372034 0.0885593 2.61997e-05 -0.0146108 0.0473326 -2.52272e-06 
0.0845367 0.147815 2.46827e-14 0.100839 0.0371477 0.00238009 0.0588865 0.0616081 0.000575654 
0.0724148 0.0488648 4.83852e-14 -0.0688001 0.0874236 -7.01345e-14 -0.0132102 0.07705 -2.37132e-11 
0.0295231 0.0410532 3.04741e-07 0.0665246 0.0978278 -2.00091e-13 0.0626426 0.0671174 7.99915e-14 
0.0267461 0.128153 -4.64296e-14 -0.0723146 0.10641 -7.80358e-14 -0.0637864 0.0710961 -5.43325e-14 
0.0497942 0.112957 -7.40493e-14 -0.00214722 0.196937 1.71681e-07 0.273053 0.12427 3.25833e-14 
0.00131626 0.0799643 -8.59372e-14 -0.0368624 0.116567 -1.76796e-08 0.00696596 0.234163 -0.00151845 
0.0663358 0.0839818 -6.92355e-15 0.027846 0.0947062 8.91622e-13 0.0285505 0.0956767 -8.9744e-13 
-0.0157026 0.112592 7.99915e-14 0.000574276 0.134415 4.8386e-14 0.092562 0.159464 -0.00062671 
0.202941 0.178992 -5.43325e-14 -0.0786047 0.0960862 -3.06276e-14 -0.041004 0.0866999 5.62866e-14 
-0.0171606 0.16325 -0.000126217 0.0835024 0.11061 -6.92355e-15 0.106739 0.0813037 8.87918e-15 
0.0854855 0.0865169 1.67805e-14 -0.0738386 0.0694024 7.20909e-14 -0.0171461 0.120732 7.20913e-14 
0.0266883 0.0926467 8.87919e-15 -0.0312234 0.0972715 2.05569e-10 -0.0214771 0.0934466 3.25825e-14 
0.0607293 0.138102 9.7781e-16 0.0436619 0.105882 -2.27263e-14 0.116987 0.0990845 -4.64288e-14 
0.0395284 0.0702911 4.83852e-14 -0.00415538 0.102828 1.05934e-11 0.0897284 0.0922176 -6.92355e-15 
-0.0321786 0.114373 1.14961e-08 -0.0777889 0.0887173 -0.00885316 -0.00317016 0.10639 -6.92355e-15 
-0.276491 0.116283 5.62866e-14 -0.00217578 0.111984 5.62874e-14 0.037703 0.113635 -7.01345e-14 
0.0674929 0.110858 8.87996e-15 -0.0872019 0.232078 9.96168e-12 0.0179084 0.160334 -7.80359e-14 
0.0819195 0.196512 -1.48249e-14 -0.0534662 -0.0888359 -3.8529e-14 -0.034792 0.0322367 -0.0458609 
-0.205584 0.178029 2.46819e-14 0.143523 0.216519 9.78591e-16 -0.00220053 0.0919277 3.93844e-08 
0.0165436 0.139171 -6.22323e-14 -0.0338103 0.133459 -3.85298e-14 -0.0400439 -0.10397 5.62866e-14 
-0.100144 0.153771 9.78584e-16 -0.0232181 0.184771 -1.47486e-07 -0.380326 0.485548 9.77822e-16 
0.0808479 0.158322 -7.80359e-14 0.0395325 -0.0270917 -5.43325e-14 0.0223214 0.0417926 3.25833e-14 
0.0931124 0.163339 7.99923e-14 0.00996573 0.0386905 2.46827e-14 0.0455602 0.163079 9.77821e-16 
0.163588 -0.0422013 7.20901e-14 0.229706 -0.0523342 2.46986e-14 0.0630458 -0.022601 -7.80359e-14 
0.0183185 -0.0298661 -6.92355e-15 -0.0547895 -0.244818 -0.0600176 -0.0733486 -0.185681 -5.20335e-14 
0.058916 -0.199315 6.66945e-14 0.00360401 -0.202338 -5.71945e-14 -0.0489937 -0.15667 4.08862e-14 
-0.325288 -0.240484 7.18587e-14 -0.0199315 -0.19591 8.21818e-14 -0.0301607 -0.217836 4.60472e-14 