# vtk DataFile Version 4.0
Generated by LIGGGHTS
ASCII
DATASET POLYDATA
POINTS 90 float
0.0204472 -0.00932196 0.0125604 0.0229852 -0.00763242 0.0121233 0.0241263 0.00558699 0.0129053 
-0.0172364 0.00473335 0.012149 0.00589376 -0.0275109 0.0131493 -0.0245832 -0.0229239 0.0165629 
0.0135743 -0.0226272 0.0171241 0.0143491 -0.0175447 0.0155251 -0.0036898 -0.0161217 0.0127393 
-0.00699549 -0.011331 0.0131421 0.00114535 -0.0117509 0.013162 0.000425097 -0.00238821 0.0125477 
0.00910768 -0.00783115 0.0151827 -0.0148898 -0.00506366 0.0121566 0.00565415 -0.00499758 0.0161255 
0.011918 -0.00436421 0.0163524 0.0112948 0.0051428 0.0154612 -0.00197989 0.0139286 0.0167546 
0.0142575 0.0147388 0.0164363 0.0150265 0.0178595 0.0138408 0.00355375 0.0191779 0.015333 
-0.00210286 0.0252399 0.0116547 0.00765868 0.0237458 0.0162656 -0.000370507 -0.0199756 0.0158389 
-0.00977432 -0.0130145 0.0186705 0.00630655 -0.013584 0.0187869 0.0223709 -0.0135317 0.0180264 
-0.0227029 -0.00950487 0.0180356 -0.0154627 -0.0115536 0.0198541 0.025108 -0.00636224 0.0169608 
0.0174465 -0.0022272 0.0191662 -0.0208299 0.00524826 0.0126796 0.00866536 0.0114441 0.0120337 
-0.0129577 0.0155555 0.0120098 -0.0186162 0.0211121 0.0199674 -0.014518 0.0210082 0.0189692 
-0.00694277 0.0205654 0.0184414 0.0097103 0.0198911 0.013731 0.0173173 0.0248032 0.0126338 
0.0247209 -0.0180297 0.011461 7.49595e-06 -0.0149632 0.0155588 -0.00376207 -0.00293135 0.0163315 
-0.01358 0.0159001 0.0148977 -0.00423643 -0.0197841 0.0175257 0.00407998 -0.0181876 0.0169648 
0.0163456 0.00865808 0.0164316 -0.021173 0.011053 0.0164076 0.0100751 0.0225187 0.0174277 
-0.0183044 -0.00626385 0.0209406 -0.00346581 -0.00675424 0.0209252 -0.021766 0.00207022 0.0217892 
0.00467381 0.0104156 0.0207542 -0.00455667 -0.00626434 0.0274224 -0.00780025 -0.00149192 0.0271065 
-0.0184388 0.00619498 0.0266085 -0.00729805 0.00554101 0.0256593 -0.0202514 0.0153285 0.0262185 
-0.00435231 0.0205864 0.0259418 -0.00175227 -0.0107434 0.0279727 0.019073 0.0125763 0.0285044 
0.00922097 0.0176777 0.0286832 0.0102164 -0.00560717 0.0315246 0.0210176 0.00838764 0.0326613 
-0.00883247 0.0117862 0.0331572 -0.0230955 0.0181217 0.0341519 -0.00424474 -0.0197813 0.0350192 
-0.01488 -0.00118319 0.0365895 0.00233929 0.00219565 0.0368626 -0.0176537 -0.0235138 0.0389097 
-0.0185654 0.00196358 0.0389844 0.0122744 0.00219922 0.0402749 0.00564836 -0.0233494 0.0439938 
-0.0243531 -0.0130249 0.0455485 0.0211976 -0.0138769 0.0436201 -0.010684 -0.0102754 0.0455546 
-0.0180537 -0.0067436 0.0444437 0.00481402 -8.00372e-05 0.0455525 0.00869917 0.0101749 0.0435036 
-0.0151739 0.0126727 0.0459077 -0.00881991 -0.0188802 0.0489436 -0.00754431 -0.00597798 0.0486384 
-0.0220086 0.00809575 0.046381 0.00298427 0.00667002 0.0498132 -0.00792491 -0.022625 0.0513412 
-0.00461377 -0.0168302 0.0523462 -0.0206674 -0.0123345 0.053202 -0.0113236 0.00446754 0.0513966 
0.0142632 0.00954747 0.0513463 0.000633471 0.0222794 0.0515381 0.021376 -0.00165578 0.053754 

VERTICES 90 180
1 0 
1 1 
1 2 
1 3 
1 4 
1 5 
1 6 
1 7 
1 8 
1 9 
1 10 
1 11 
1 12 
1 13 
1 14 
1 15 
1 16 
1 17 
1 18 
1 19 
1 20 
1 21 
1 22 
1 23 
1 24 
1 25 
1 26 
1 27 
1 28 
1 29 
1 30 
1 31 
1 32 
1 33 
1 34 
1 35 
1 36 
1 37 
1 38 
1 39 
1 40 
1 41 
1 42 
1 43 
1 44 
1 45 
1 46 
1 47 
1 48 
1 49 
1 50 
1 51 
1 52 
1 53 
1 54 
1 55 
1 56 
1 57 
1 58 
1 59 
1 60 
1 61 
1 62 
1 63 
1 64 
1 65 
1 66 
1 67 
1 68 
1 69 
1 70 
1 71 
1 72 
1 73 
1 74 
1 75 
1 76 
1 77 
1 78 
1 79 
1 80 
1 81 
1 82 
1 83 
1 84 
1 85 
1 86 
1 87 
1 88 
1 89 

POINT_DATA 90
FIELD FieldData 7
id 1 90 int
11 23 37 21 2 16 19 29 18 
36 15 27 14 32 25 10 17 20 
22 34 28 26 24 30 6 8 12 
9 4 3 5 33 35 38 1 13 
7 31 39 52 48 41 51 47 50 
49 43 46 45 42 40 44 64 55 
61 60 56 65 59 54 53 63 62 
58 57 73 67 72 71 69 75 77 
84 76 86 74 68 70 66 82 85 
80 81 90 89 83 88 87 78 79 

type 1 90 int
1 1 1 1 1 1 1 1 1 
1 1 1 1 1 1 1 1 1 
1 1 1 1 1 1 1 1 1 
1 1 1 1 1 1 1 1 1 
1 1 1 1 1 1 1 1 1 
1 1 1 1 1 1 1 1 1 
1 1 1 1 1 1 1 1 1 
1 1 1 1 1 1 1 1 1 
1 1 1 1 1 1 1 1 1 
1 1 1 1 1 1 1 1 1 

i 3 90 int
0 0 0 0 0 0 0 0 0 
0 0 0 0 0 0 0 0 0 
0 0 0 0 0 0 0 0 0 
0 0 0 0 0 0 0 0 0 
0 0 0 0 0 0 0 0 0 
0 0 0 0 0 0 0 0 0 
0 0 0 0 0 0 0 0 0 
0 0 0 0 0 0 0 0 0 
0 0 0 0 0 0 0 0 0 
0 0 0 0 0 0 0 0 0 
0 0 0 0 0 0 0 0 0 
0 0 0 0 0 0 0 0 0 
0 0 0 0 0 0 0 0 0 
0 0 0 0 0 0 0 0 0 
0 0 0 0 0 0 0 0 0 
0 0 0 0 0 0 0 0 0 
0 0 0 0 0 0 0 0 0 
0 0 0 0 0 0 0 0 0 
0 0 0 0 0 0 0 0 0 
0 0 0 0 0 0 0 0 0 
0 0 0 0 0 0 0 0 0 
0 0 0 0 0 0 0 0 0 
0 0 0 0 0 0 0 0 0 
0 0 0 0 0 0 0 0 0 
0 0 0 0 0 0 0 0 0 
0 0 0 0 0 0 0 0 0 
0 0 0 0 0 0 0 0 0 
0 0 0 0 0 0 0 0 0 
0 0 0 0 0 0 0 0 0 
0 0 0 0 0 0 0 0 0 

v 3 90 double
0.220635 -0.0652534 0.0194918 0.101969 -0.0340022 0.0786715 -0.0218423 0.557305 0.169089 
-0.0420257 0.175459 0.0786887 0.0650688 -0.120054 -0.180675 0 0 0.271638 
0 0 0.213583 0 0 0.30701 -0.256238 -0.0231697 0.210113 
0 0 0.351994 0.0274307 0.0335312 0.0626218 0.329664 0.308132 -0.529104 
-0.348818 -0.00988767 0.1467 0.0878951 -0.366966 0.151428 0 0 0.255192 
-0.0317394 -0.0644205 0.245388 0.0173807 0.0362576 0.0557046 0 0 0.230348 
0 0 0.236437 0 0 0.332117 0.076811 -0.0823159 0.272965 
-0.093055 0.0997241 0.0423904 -0.262942 0.133524 -0.156182 0.189233 -0.395727 0.0229806 
0 0 0.11073 0 0 0.100999 0 0 0.166971 
0 0 0.166962 0 0 0.108684 0.0406186 -0.0711276 0.0296144 
0 0 0.153205 0 0 0.36034 -0.179076 0.472313 0.250622 
0.167451 -0.0927251 -0.719796 0 0 0.0962498 0 0 0.0970394 
0 0 0.13093 0 0 0.359602 0 0 0.365593 
0 0 0.491513 0 0 -1.30955 -0.365321 0.0882655 -0.598934 
-0.167451 0.0927251 -0.222108 -0.403988 -0.177602 -0.467321 0 0 -1.29896 
0 0 -1.30298 0 0 -1.30318 0.262942 -0.133524 -0.897831 
0 0 -1.26865 0 0 -1.26874 0 0 -1.26207 
0 0 -1.27002 0 0 -1.21744 0 0 -1.21999 
0 0 -1.22401 0 0 -1.23157 0 0 -1.22715 
0 0 -1.22931 0 0 -1.21302 0 0 -1.20871 
0 0 -1.20724 0 0 -1.18399 0 0 -1.17447 
0 0 -1.17035 0 0 -1.16201 0 0 -1.15465 
0 0 -1.14121 0 0 -1.13886 0 0 -1.1211 
0 0 -1.12042 0 0 -1.10904 0 0 -1.07568 
0 0 -1.06136 0 0 -1.07912 0 0 -1.06136 
0 0 -1.07156 0 0 -1.06136 0 0 -1.0801 
0 0 -1.05812 0 0 -1.02958 0 0 -1.03242 
0 0 -1.05371 0 0 -1.02124 0 0 -1.00643 
-0 -0 -1 -0 -0 -1 0 0 -1.00594 
0 0 -1.00643 0 0 -1.00456 -0 -0 -1 

f 3 90 double
0 0 -0.000346714 0 0 -0.000346714 0 0 -0.000346714 
0 0 -0.000346714 0 0 -0.00160516 0 0 -0.00160516 
0 0 -0.000346714 0 0 -0.00160516 0 0 -0.000346714 
0 0 -0.000346714 0 0 -0.00160516 0 0 -0.00160516 
0 0 -0.00160516 0 0 -0.000346714 0 0 -0.000346714 
0 0 -0.000346714 0 0 -0.00160516 0 0 -0.000346714 
0 0 -0.000346714 0 0 -0.000346714 0 0 -0.00160516 
0 0 -0.000346714 -0.0185105 0.00939974 0.00113929 0 0 -0.00160516 
0 0 -0.000346714 0 0 -0.000346714 0 0 -0.000346714 
0 0 -0.000346714 0 0 -0.00160516 0 0 -0.00160516 
0 0 -0.00160516 0 0 -0.000346714 0 0 -0.000346714 
-0.00571746 0.00316601 0.0313936 0 0 -0.00160516 0 0 -0.000346714 
0 0 -0.000346714 0 0 -0.00160516 0 0 -0.000346714 
0 0 -0.0360842 0 0 -0.000346714 0 0 -0.00160516 
0.00571746 -0.00316601 -0.032087 0 0 -0.000346714 0 0 -0.000346714 
0 0 -0.000346714 0 0 -0.00160516 0.0185105 -0.00939974 -0.00183272 
0 0 -0.000346714 0 0 -0.00160516 0 0 -0.00160516 
0 0 -0.00160516 0 0 -0.000346714 0 0 -0.00160516 
0 0 -0.000346714 0 0 -0.000346714 0 0 -0.00160516 
0 0 -0.000346714 0 0 -0.000346714 0 0 -0.00160516 
0 0 -0.00160516 0 0 -0.000346714 0 0 -0.000346714 
0 0 -0.000346714 0 0 -0.000346714 0 0 -0.000346714 
0 0 -0.00160516 0 0 -0.000346714 0 0 -0.000346714 
0 0 -0.00160516 0 0 -0.000346714 0 0 -0.000346714 
0 0 -0.000346714 0 0 -0.000346714 0 0 -0.000346714 
0 0 -0.000346714 0 0 -0.00160516 0 0 -0.000346714 
0 0 -0.00160516 0 0 -0.000346714 0 0 -0.000346714 
0 0 -0.00160516 0 0 -0.00160516 0 0 -0.000346714 
0 0 0 0 0 0 0 0 -0.000346714 
0 0 -0.000346714 0 0 -0.00160516 0 0 0 

radius 1 90 double
0.0015 0.0015 0.0015 0.0015 0.0025 0.0025 0.0015 0.0025 0.0015 
0.0015 0.0025 0.0025 0.0025 0.0015 0.0015 0.0015 0.0025 0.0015 
0.0015 0.0015 0.0025 0.0015 0.0015 0.0025 0.0015 0.0015 0.0015 
0.0015 0.0025 0.0025 0.0025 0.0015 0.0015 0.0015 0.0025 0.0015 
0.0015 0.0025 0.0015 0.0015 0.0015 0.0025 0.0015 0.0015 0.0015 
0.0015 0.0025 0.0015 0.0015 0.0025 0.0025 0.0025 0.0015 0.0025 
0.0015 0.0015 0.0025 0.0015 0.0015 0.0025 0.0025 0.0015 0.0015 
0.0015 0.0015 0.0015 0.0025 0.0015 0.0015 0.0025 0.0015 0.0015 
0.0015 0.0015 0.0015 0.0015 0.0025 0.0015 0.0025 0.0015 0.0015 
0.0025 0.0025 0.0015 0.0015 0.0015 0.0015 0.0015 0.0025 0.0025 

omega 3 90 double
19.6257 -63.8698 -27.322 23.314 66.9137 -5.34098 -375.515 -14.7175 1.62393e-13 
-115.999 -27.7838 -1.13273e-13 -41.4226 -22.451 3.31289e-15 0 0 0 
0 0 0 0 0 0 -8.28079 -190.104 -40.6434 
0 0 0 -13.9207 10.4453 -38.4227 -72.662 -126.901 56.6454 
-29.8515 -137.427 -28.4296 244.88 58.6531 -1.13273e-13 0 0 0 
64.6815 85.2287 -191.476 -109.389 -29.7161 1.76581 0 0 0 
0 0 0 0 0 0 33.5299 31.2876 -4.62251e-14 
176.042 164.269 -3.55473e-13 170.615 335.984 6.31817e-14 142.871 151.412 3.26643 
0 0 0 0 0 0 0 0 0 
0 0 0 0 0 0 -61.7069 -26.3298 -0.693652 
0 0 0 0 0 0 -319.553 -121.331 13.5503 
-41.4171 -74.7946 9.34153e-15 0 0 0 0 0 0 
0 0 0 0 0 0 0 0 0 
0 0 0 0 0 0 87.1767 -112.522 56.6454 
-41.4171 -74.7946 9.34153e-15 -149.137 -739.687 -228.53 0 0 0 
0 0 0 0 0 0 170.615 335.984 6.31817e-14 
0 0 0 0 0 0 0 0 0 
0 0 0 0 0 0 0 0 0 
0 0 0 0 0 0 0 0 0 
0 0 0 0 0 0 0 0 0 
0 0 0 0 0 0 0 0 0 
0 0 0 0 0 0 0 0 0 
0 0 0 0 0 0 0 0 0 
0 0 0 0 0 0 0 0 0 
0 0 0 0 0 0 0 0 0 
0 0 0 0 0 0 0 0 0 
0 0 0 0 0 0 0 0 0 
0 0 0 0 0 0 0 0 0 
0 0 0 0 0 0 0 0 0 
0 0 0 0 0 0 0 0 0 

