# vtk DataFile Version 4.0
Generated by LIGGGHTS
ASCII
DATASET POLYDATA
POINTS 153 float
-0.0244251 -0.0232896 0.0114989 -0.00565458 -0.0233297 0.0123409 -0.0117216 -0.0181956 0.0116269 
-0.00842726 -0.0162468 0.0129551 -0.0240863 -0.0109531 0.0117774 -0.0173796 -0.0095394 0.0117846 
0.0289415 -0.00959491 0.0114983 0.0159886 -0.0066568 0.0116059 -0.00358289 -0.00335945 0.0114998 
0.00813535 -0.00517897 0.0119354 -0.0187283 0.00495755 0.0114983 -0.0119812 0.0056853 0.0114983 
0.00840421 0.00833835 0.0115366 -0.0151755 0.0101876 0.0116306 -0.00951726 0.0136503 0.0114983 
-0.000361517 0.0155417 0.0128434 -0.0145215 0.0197912 0.0116722 0.00336414 0.0260452 0.012261 
-0.00356517 0.026807 0.0114983 0.000746168 0.0272501 0.0114875 0.0230776 0.0323461 0.0117321 
0.028769 0.0412284 0.0118681 -0.00829046 -0.0372992 0.0125559 0.00833346 -0.0315784 0.0124959 
-0.0293991 -0.0238524 0.0125832 -0.0235774 -0.0257146 0.0148062 -0.00930458 -0.0239897 0.0152537 
-0.0174207 -0.0213931 0.012885 -0.0135748 -0.0201631 0.0131796 -0.0112786 -0.0234032 0.012184 
-0.0145101 -0.0159163 0.0115129 -0.00431881 -0.0170225 0.0154812 0.0282054 -0.0195575 0.011601 
-0.0201045 -0.0181994 0.0140794 -0.0108521 -0.0108748 0.0149969 -0.00569957 -0.0148815 0.0130273 
0.00630655 -0.013584 0.0123337 0.0146075 -0.0158155 0.0133964 -0.0169378 -0.0122568 0.0146906 
0.00133435 -0.0113463 0.0124961 0.0261913 -0.0115874 0.0120436 -0.011918 -0.00655979 0.0163889 
-0.0029106 -0.00843402 0.0124985 0.00505761 -0.00663058 0.0134578 -0.0305042 -0.00447226 0.0124779 
-0.0196789 -0.00578307 0.0125369 -0.0101085 -0.00277566 0.0125019 0.00761484 -0.00446235 0.015842 
0.0144098 -0.00141667 0.0126742 -0.000539844 0.000248896 0.0135136 0.0272479 -0.00149375 0.0132363 
-0.0151447 0.00478015 0.0143191 -0.0087793 0.00302212 0.0128074 -0.00922642 0.00811567 0.0121484 
0.00499975 0.00632641 0.0124981 0.0130079 0.00630267 0.0125035 0.0203641 0.00617664 0.0118327 
-0.0258084 0.0117333 0.0161337 -0.00494558 0.0110956 0.0114798 0.0108324 0.0116953 0.0126343 
0.00544714 0.0148419 0.0125211 0.00831173 0.0177942 0.0132756 -0.0432054 0.0229534 0.0127462 
-0.0186162 0.0211121 0.0132863 -0.0143714 0.0216069 0.0144517 -0.00996778 0.0222946 0.0120853 
0.00996204 0.0225358 0.0124961 0.0139124 0.0202343 0.0129254 -0.0166584 0.0278166 0.012496 
-0.0008529 0.0234368 0.0161529 0.00634118 0.0226629 0.0151051 0.00157133 -0.0343276 0.0180494 
0.00564836 -0.0233494 0.0175568 -0.00417064 -0.0203739 0.0177568 0.0135743 -0.0226272 0.016075 
0.0264472 -0.0197478 0.0142182 -0.0243531 -0.0130249 0.0172672 -0.0227029 -0.00950487 0.0147487 
-0.00699549 -0.011331 0.0187367 0.0270746 -0.00917921 0.0152126 -0.00253152 -0.00744804 0.0179057 
-0.00626775 -0.00189467 0.012998 0.0116569 -0.00297941 0.0152205 -0.0028516 0.00365647 0.0152806 
-0.00729805 0.00554101 0.0193747 0.0156624 0.00764999 0.0156712 0.0227944 0.00838421 0.0185636 
-0.00878264 0.0117442 0.018922 -0.0164293 0.0132019 0.0160983 0.00707595 0.0158042 0.0166199 
0.0142575 0.0147388 0.0164841 0.00216964 0.017368 0.015349 0.0150265 0.0178595 0.0184813 
0.0188434 0.0268511 0.0154107 0.0106142 -0.0204289 0.0134258 0.00407998 -0.0181876 0.0194137 
0.0143491 -0.0175447 0.0189604 0.0212359 -0.0156993 0.0156583 -0.0204526 -0.00182487 0.0186376 
-0.0146824 0.000889146 0.0186978 0.0222337 0.00214261 0.0139135 -0.0166416 0.00816513 0.0184499 
0.019073 0.0125763 0.0201816 0.00524635 0.0205025 0.0179756 -0.0105711 0.00237375 0.0162029 
-0.0107295 0.0152122 0.0177802 -0.0231729 -0.0210321 0.0198787 -0.00360719 -0.00275249 0.0189813 
0.0144646 0.00163708 0.0215042 -0.0184342 -0.0202166 0.0253901 0.0031502 -0.0140362 0.0241624 
0.0116865 -0.0143527 0.0243008 0.0106827 -0.0106794 0.0230834 0.0197635 -0.000430192 0.023213 
-0.00364867 0.00796075 0.0231563 0.0194848 0.00102157 0.0289629 0.0100098 0.00796751 0.0284043 
0.0158208 0.0115854 0.0280335 0.00292479 0.0150445 0.0294735 -0.0226341 0.0206471 0.028626 
-0.00251869 -0.0164352 0.0311558 -0.000103645 -0.00472293 0.0319854 0.00693152 0.00277307 0.0324769 
-0.00637766 0.00913867 0.030333 -0.00264222 0.0238292 0.0306798 -0.0211036 0.00870499 0.0364192 
0.0244662 0.00800407 0.0362308 -0.00872258 0.0175547 0.0367891 -0.0100804 -0.00591709 0.0408985 
0.0192488 -0.00825137 0.0383482 0.00350997 0.0168533 0.0390157 0.0247988 0.0225695 0.0385435 
0.00294519 0.0239456 0.0406927 -0.00871618 0.00269621 0.0417035 -0.0238308 -0.0192706 0.0470778 
0.0247132 -0.0163637 0.047008 0.00527142 -0.00920524 0.0481117 0.0147052 -0.00897455 0.0463658 
-0.00485684 -0.00202261 0.0476029 -0.00133512 -0.00254257 0.0465946 -0.0210873 0.00110593 0.0482589 
-0.0209863 -0.00774384 0.0502657 -0.014558 -0.00250175 0.0512118 0.0154587 -0.000962964 0.0483338 
0.00470322 0.00420686 0.0515304 0.000514489 0.00919858 0.0512221 0.00922741 -0.0232366 0.0539897 
-0.000171395 0.00549175 0.0551955 0.0236058 0.0102769 0.0521253 0.00645901 -0.00301919 0.0565338 
0.0104618 0.0112638 0.055418 -0.011803 0.0179561 0.0566183 0.0116954 0.0190136 0.0571038 

VERTICES 153 306
1 0 
1 1 
1 2 
1 3 
1 4 
1 5 
1 6 
1 7 
1 8 
1 9 
1 10 
1 11 
1 12 
1 13 
1 14 
1 15 
1 16 
1 17 
1 18 
1 19 
1 20 
1 21 
1 22 
1 23 
1 24 
1 25 
1 26 
1 27 
1 28 
1 29 
1 30 
1 31 
1 32 
1 33 
1 34 
1 35 
1 36 
1 37 
1 38 
1 39 
1 40 
1 41 
1 42 
1 43 
1 44 
1 45 
1 46 
1 47 
1 48 
1 49 
1 50 
1 51 
1 52 
1 53 
1 54 
1 55 
1 56 
1 57 
1 58 
1 59 
1 60 
1 61 
1 62 
1 63 
1 64 
1 65 
1 66 
1 67 
1 68 
1 69 
1 70 
1 71 
1 72 
1 73 
1 74 
1 75 
1 76 
1 77 
1 78 
1 79 
1 80 
1 81 
1 82 
1 83 
1 84 
1 85 
1 86 
1 87 
1 88 
1 89 
1 90 
1 91 
1 92 
1 93 
1 94 
1 95 
1 96 
1 97 
1 98 
1 99 
1 100 
1 101 
1 102 
1 103 
1 104 
1 105 
1 106 
1 107 
1 108 
1 109 
1 110 
1 111 
1 112 
1 113 
1 114 
1 115 
1 116 
1 117 
1 118 
1 119 
1 120 
1 121 
1 122 
1 123 
1 124 
1 125 
1 126 
1 127 
1 128 
1 129 
1 130 
1 131 
1 132 
1 133 
1 134 
1 135 
1 136 
1 137 
1 138 
1 139 
1 140 
1 141 
1 142 
1 143 
1 144 
1 145 
1 146 
1 147 
1 148 
1 149 
1 150 
1 151 
1 152 

POINT_DATA 153
FIELD FieldData 7
id 1 153 int
47 59 32 6 45 74 23 10 25 
75 33 61 70 21 38 20 51 35 
26 24 37 46 48 2 16 71 90 
92 18 82 96 89 12 83 91 85 
8 76 4 15 11 86 42 63 40 
67 41 68 5 72 79 69 55 88 
27 17 49 43 99 53 44 65 57 
1 13 7 31 100 56 78 95 30 
77 73 19 52 84 9 36 3 14 
102 101 81 60 87 62 58 66 98 
22 28 34 39 110 50 29 97 94 
64 93 80 54 113 114 104 107 106 
111 127 105 112 108 109 103 115 121 
120 118 117 119 126 123 116 124 122 
125 138 131 139 128 134 135 133 137 
132 152 136 146 140 130 153 150 129 
145 148 142 151 144 141 143 147 149 

type 1 153 int
1 1 1 1 1 1 1 1 1 
1 1 1 1 1 1 1 1 1 
1 1 1 1 1 1 1 1 1 
1 1 1 1 1 1 1 1 1 
1 1 1 1 1 1 1 1 1 
1 1 1 1 1 1 1 1 1 
1 1 1 1 1 1 1 1 1 
1 1 1 1 1 1 1 1 1 
1 1 1 1 1 1 1 1 1 
1 1 1 1 1 1 1 1 1 
1 1 1 1 1 1 1 1 1 
1 1 1 1 1 1 1 1 1 
1 1 1 1 1 1 1 1 1 
1 1 1 1 1 1 1 1 1 
1 1 1 1 1 1 1 1 1 
1 1 1 1 1 1 1 1 1 
1 1 1 1 1 1 1 1 1 

i 3 153 int
0 0 0 0 0 0 0 0 0 
0 0 0 0 0 0 0 0 0 
0 0 0 0 0 0 0 0 0 
0 0 0 0 0 0 0 0 0 
0 0 0 0 0 0 0 0 0 
0 0 0 0 0 0 0 0 0 
0 0 0 0 0 0 0 0 0 
0 0 0 0 0 0 0 0 0 
0 0 0 0 0 0 0 0 0 
0 0 0 0 0 0 0 0 0 
0 0 0 0 0 0 0 0 0 
0 0 0 0 0 0 0 0 0 
0 0 0 0 0 0 0 0 0 
0 0 0 0 0 0 0 0 0 
0 0 0 0 0 0 0 0 0 
0 0 0 0 0 0 0 0 0 
0 0 0 0 0 0 0 0 0 
0 0 0 0 0 0 0 0 0 
0 0 0 0 0 0 0 0 0 
0 0 0 0 0 0 0 0 0 
0 0 0 0 0 0 0 0 0 
0 0 0 0 0 0 0 0 0 
0 0 0 0 0 0 0 0 0 
0 0 0 0 0 0 0 0 0 
0 0 0 0 0 0 0 0 0 
0 0 0 0 0 0 0 0 0 
0 0 0 0 0 0 0 0 0 
0 0 0 0 0 0 0 0 0 
0 0 0 0 0 0 0 0 0 
0 0 0 0 0 0 0 0 0 
0 0 0 0 0 0 0 0 0 
0 0 0 0 0 0 0 0 0 
0 0 0 0 0 0 0 0 0 
0 0 0 0 0 0 0 0 0 
0 0 0 0 0 0 0 0 0 
0 0 0 0 0 0 0 0 0 
0 0 0 0 0 0 0 0 0 
0 0 0 0 0 0 0 0 0 
0 0 0 0 0 0 0 0 0 
0 0 0 0 0 0 0 0 0 
0 0 0 0 0 0 0 0 0 
0 0 0 0 0 0 0 0 0 
0 0 0 0 0 0 0 0 0 
0 0 0 0 0 0 0 0 0 
0 0 0 0 0 0 0 0 0 
0 0 0 0 0 0 0 0 0 
0 0 0 0 0 0 0 0 0 
0 0 0 0 0 0 0 0 0 
0 0 0 0 0 0 0 0 0 
0 0 0 0 0 0 0 0 0 
0 0 0 0 0 0 0 0 0 

v 3 153 double
-0.451859 -0.0559581 0.000463064 0.0161133 -0.235175 0.00958895 0.238085 0.0306257 0.0292214 
0.106172 -0.17335 0.298789 -0.218772 -0.122175 -0.0275017 -0.0419898 -0.203042 0.0215039 
0.110701 -0.0394321 -2.62403e-07 -0.0592864 -0.148279 -0.0117116 0.0991401 -0.0602939 -0.00317579 
-0.267408 -0.190889 0.0116396 0.0760748 -0.0235165 4.46626e-06 0.139363 -0.0249448 -8.66133e-06 
0.0525016 0.045884 -0.0409912 -0.0106207 -0.0290986 0.0524101 0.0635373 -0.0351834 -3.06276e-14 
-0.225504 -0.0991867 -0.0877443 0.00849492 -0.0119981 0.0161373 -0.0476423 0.167628 0.1385 
0.00403999 -0.00432952 -6.92545e-15 -0.0882102 0.0254545 -0.0132074 -0.0218957 0.558666 0.0103814 
0.416361 0.378052 -0.0406837 -0.176156 -0.477571 -0.182637 0.0599907 -0.0939833 0.000896082 
-0.17859 -0.0115953 0.165825 -0.0831905 -0.109457 -0.148502 -0.120644 -0.119359 0.20137 
0.122651 -0.0125015 0.204348 0.231124 -0.0654217 -0.0614541 -0.0455006 -0.349263 -0.102596 
-0.0464517 0.109349 0.184041 0.0901911 -0.204091 0.273523 0.218619 -0.255324 0.112804 
0.0446752 -0.423898 0.177187 -0.094517 0.440233 0.165753 0.0174454 -0.240815 0.0487532 
0 0 -0.369881 -0.214357 -0.063058 0.0879333 -0.106589 -0.169474 0.00012096 
-0.00386476 -0.0475804 -2.49883e-05 0.0542834 -0.104326 -0.111695 -0.0518044 0.155984 0.175302 
-0.00691325 -0.0210117 -0.00365839 0.0040579 0.0671457 -0.0346504 -0.208378 -0.126115 0.030609 
-0.147308 -0.0782248 0.0183331 -0.117728 0.00153312 -0.012207 0.113775 -0.214786 0.0985934 
-0.0643025 0.202684 0.0315697 -0.0633145 -0.163815 -0.0486093 0.434943 -0.148219 -0.23407 
-0.0642309 0.14072 -0.0692973 0.0943054 0.0486971 -0.201273 0.247969 0.123275 -0.222565 
0.0197122 0.0518151 -0.0131985 0.0607031 -0.00498723 -0.018933 0.00404581 -0.0558141 0.105692 
-0.117325 0.119993 0.058712 -0.125746 -0.120119 0.257662 0.0519806 0.0107203 -0.0326701 
-0.0808543 0.0103401 -0.0101353 0.14474 -0.128394 0.0748856 -0.628854 0.129191 -0.0750895 
0 0 -0.37463 0.0265369 0.113152 0.0280201 0.0964051 0.0710541 -0.0811073 
0.0207521 0.074692 2.94631e-06 -0.153419 -0.20587 0.277876 0.0746253 0.317824 -2.41087e-05 
-0.0883602 0.0646139 0.213399 0.185372 -0.160243 0.093316 -0.0396564 -0.247304 -0.0510741 
0 0 0.192956 0.00452771 -0.0362076 0.053502 0 0 -0.257297 
-0.0714047 -0.25835 0.136665 0 0 0.207312 0 0 -0.303918 
0 0 -0.118886 0.0469783 -0.0322469 -0.1274 -0.10506 -0.16056 -0.183438 
-0.193896 0.203033 -0.234131 -0.342239 -0.0156457 -0.234364 -0.314562 -0.110054 -0.147369 
0 0 0.0367755 0.196669 -0.142501 -0.0641463 0.120055 -6.33981e-05 0.0650678 
0.0378996 -0.0304476 0.0626256 -0.353658 -0.0695564 -0.33627 0.120053 0.0978595 -0.296729 
0 0 -0.234443 -0.147777 0.101565 -0.115115 0 0 -0.138763 
0.111897 0.150153 -0.359481 0 0 -1.32545 0 0 -0.0302248 
0 0 -0.16387 -0.234493 0.156803 -0.695419 -0.132735 -0.417608 -0.69252 
0.228346 0.0115734 -0.391788 -0.158108 0.188477 -0.887198 0.241213 0.276784 -0.376382 
0 0 0.052546 0.210133 0.371109 -0.333999 -0.119667 -0.0736681 -0.558375 
0.330825 0.143754 -0.776955 0 0 -1.27679 -0.0663159 0.191872 -1.0544 
0 0 -1.26423 0 0 -1.23372 0 0 -1.24344 
0 0 -1.24236 0 0 -1.25197 0 0 -1.25089 
0 0 -1.25138 0 0 -1.20498 0 0 -1.20949 
0 0 -1.21253 0 0 -1.20086 0 0 -1.20773 
0 0 -1.18703 0 0 -1.18016 0 0 -1.17604 
0 0 -1.1938 0 0 -1.19095 0 0 -1.14269 
0 0 -1.14426 0 0 -1.13945 0 0 -1.10354 
0 0 -1.12601 0 0 -1.12012 0 0 -1.12424 
0 0 -1.10541 0 0 -1.09638 0 0 -1.04714 
0 0 -1.04782 0 0 -1.03743 0 0 -1.05381 
0 0 -1.04223 0 0 -1.05165 0 0 -1.03605 
0 0 -1.01682 0 0 -1.0077 0 0 -1.03537 
0 0 -1.00456 0 0 -1.0076 -0 -0 -1 
-0 -0 -1 -0 -0 -1 -0 -0 -1 
-0 -0 -1 -0 -0 -1 -0 -0 -1 

f 3 153 double
-1.91564e-06 -2.74524e-07 -0.000187797 0 0 -0.000346714 0 0 -0.000346714 
0 0 -0.000346714 0 0 -0.000346714 0 0 -0.000346714 
-1.49775e-10 5.33501e-11 -1.35385e-08 0 0 -0.000346714 -6.32367e-05 3.11475e-05 -0.000205731 
0 0 -0.000346714 1.94125e-09 -6.00086e-10 -6.25246e-07 -7.82945e-09 1.40556e-09 3.50822e-06 
0 0 -0.000346714 0 0 -0.000346714 1.42727e-17 -6.41014e-18 0 
0 0 -0.000346714 0 0 -0.000346714 0.00422837 -0.00325726 0.00398375 
1.63502e-19 -1.87916e-19 1.6263e-19 -0.000230487 0.00150933 0.00404941 0 0 -0.000346714 
0 0 -0.000346714 0 0 -0.000346714 8.1058e-07 -1.26966e-06 -8.56161e-05 
0 0 -0.00160516 0 0 -0.000346714 0 0 -0.000346714 
0 0 -0.00160516 0 0 -0.000346714 0 0 -0.000346714 
0 0 -0.000346714 0 0 -0.000346714 0 0 -0.000346714 
0 0 -0.000346714 0 0 -0.00160516 0 0 -0.000346714 
0 0 -0.000346714 0 0 -0.000346714 0 0 -0.00160516 
2.05206e-09 2.16256e-08 2.89896e-05 0 0 -0.000346714 0 0 -0.000346714 
3.93252e-07 3.04867e-07 -0.00062444 0 0 -0.000346714 -9.68195e-05 -5.5673e-05 0.0103552 
0 0 -0.00160516 -0.0237903 -0.00542092 -0.0179028 0 0 -0.00160516 
0 0 -0.00160516 0 0 -0.000346714 0 0 -0.00160516 
0 0 -0.00160516 0.0668156 0.0262658 -0.162382 0 0 -0.000346714 
0.00206762 0.00295101 0.00122378 0 0 -0.00160516 0 0 -0.000346714 
0 0 -0.00160516 -0.000272264 -0.000260081 -0.0190454 0 0 -0.00160516 
0 0 -0.00160516 0 0 -0.000346714 0 0 -0.000346714 
0 0 -0.00160516 0 0 -0.000346714 0 0 -0.000346714 
9.53367e-10 3.31607e-09 -2.13961e-07 0 0 -0.000346714 -4.34851e-08 -1.8522e-07 8.03221e-05 
0 0 -0.00160516 0 0 -0.000346714 0 0 -0.00160516 
0 0 -0.000346714 0 0 -0.000346714 0 0 -0.000346714 
0 0 -0.000346714 0 0 -0.000346714 0 0 -0.000346714 
0 0 -0.000346714 0 0 -0.00160516 0.00986739 -0.0355568 -0.0315417 
0.0237903 0.00542092 0.015951 0 0 -0.000346714 0 0 -0.00160516 
0 0 -0.000346714 0 0 -0.000346714 0 0 -0.000346714 
0 0 -0.000346714 0 0 -0.00160516 0 0 -0.000346714 
0 0 -0.000346714 0 0 -0.00160516 0 0 -0.000346714 
0 0 -0.000346714 0 0 -0.000346714 0 0 -0.000346714 
0 0 -0.00160516 0 0 -0.000346714 0 0 -0.00160516 
0 0 -0.000346714 0 0 -0.00160516 0 0 -0.00160516 
0 0 -0.00160516 0 0 -0.000346714 -0.0668156 -0.0262658 0.160431 
0 0 -0.00160516 0 0 -0.000346714 -0.00986739 0.0355568 0.0283314 
0 0 -0.000346714 0 0 -0.000346714 0 0 -0.00160516 
0 0 -0.000346714 0 0 -0.000346714 0 0 -0.000346714 
0 0 -0.00160516 0 0 -0.00160516 0 0 -0.000346714 
0 0 -0.000346714 0 0 -0.00160516 0 0 -0.00160516 
0 0 -0.00160516 0 0 -0.000346714 0 0 -0.000346714 
0 0 -0.00160516 0 0 -0.000346714 0 0 -0.000346714 
0 0 -0.000346714 0 0 -0.000346714 0 0 -0.00160516 
0 0 -0.000346714 0 0 -0.00160516 0 0 -0.000346714 
0 0 -0.000346714 0 0 -0.000346714 0 0 -0.000346714 
0 0 -0.00160516 0 0 -0.000346714 0 0 -0.000346714 
0 0 -0.000346714 0 0 -0.000346714 0 0 -0.00160516 
0 0 -0.000346714 0 0 -0.000346714 0 0 -0.00160516 
0 0 -0.00160516 0 0 -0.000346714 0 0 0 
0 0 0 0 0 0 0 0 0 
0 0 0 0 0 0 0 0 0 

radius 1 153 double
0.0015 0.0015 0.0015 0.0015 0.0015 0.0015 0.0015 0.0015 0.0015 
0.0015 0.0015 0.0015 0.0015 0.0015 0.0015 0.0015 0.0015 0.0015 
0.0015 0.0015 0.0015 0.0015 0.0015 0.0025 0.0025 0.0015 0.0015 
0.0025 0.0015 0.0015 0.0015 0.0015 0.0015 0.0015 0.0025 0.0015 
0.0015 0.0015 0.0025 0.0025 0.0015 0.0015 0.0025 0.0015 0.0025 
0.0025 0.0025 0.0025 0.0025 0.0015 0.0025 0.0025 0.0025 0.0015 
0.0025 0.0025 0.0015 0.0025 0.0015 0.0025 0.0025 0.0015 0.0015 
0.0025 0.0015 0.0015 0.0025 0.0015 0.0025 0.0025 0.0015 0.0025 
0.0015 0.0015 0.0015 0.0015 0.0015 0.0015 0.0015 0.0025 0.0025 
0.0015 0.0015 0.0025 0.0015 0.0015 0.0015 0.0015 0.0025 0.0015 
0.0015 0.0025 0.0015 0.0015 0.0015 0.0015 0.0025 0.0015 0.0025 
0.0015 0.0025 0.0025 0.0025 0.0015 0.0015 0.0025 0.0015 0.0025 
0.0015 0.0015 0.0025 0.0015 0.0015 0.0015 0.0025 0.0025 0.0015 
0.0015 0.0025 0.0025 0.0025 0.0015 0.0015 0.0025 0.0015 0.0015 
0.0015 0.0015 0.0025 0.0015 0.0025 0.0015 0.0015 0.0015 0.0015 
0.0025 0.0015 0.0015 0.0015 0.0015 0.0025 0.0015 0.0015 0.0025 
0.0025 0.0015 0.0025 0.0015 0.0025 0.0025 0.0025 0.0015 0.0015 

omega 3 153 double
37.3176 -301.334 -114.563 122.152 49.393 -150.364 -20.321 158.996 102.177 
172.013 103.756 2.23733 80.1853 -146.449 111.675 -58.1478 -111.633 34.5765 
26.3026 73.8418 -12.0351 95.0471 -41.172 -57.0145 -17.7217 -51.4938 -84.8796 
109.844 -161.179 121.837 15.6864 50.7446 341.499 16.6392 92.9606 107.55 
17.9283 -25.4578 -23.7558 20.3715 -6.67523 -16.324 23.4686 42.3816 4.61605e-12 
-67.9237 20.8944 40.6141 10.8147 5.49263 -91.2632 -83.3979 -16.2458 94.8212 
2.88795 2.69482 -3.55473e-13 -5.69942 -37.0529 -30.4193 -373.247 -14.6286 1.62393e-13 
-252.089 279.006 14.541 322.241 -118.525 22.6133 37.6249 24.0164 16.0968 
4.4636 -71.1183 -7.98564 -71.9651 -452.404 52.559 -114.633 118.413 -5.30198 
-8.4706 83.0214 -7.05522 -57.8938 -91.2128 -24.1797 78.3352 -194.459 -25.4091 
-73.6028 -30.3634 -167.326 -244.621 -76.8802 34.4662 170.36 149.816 -13.3762 
281.934 30.5388 67.6421 -356.053 -129.132 -12.7148 137.999 5.85664 40.8847 
0 0 0 42.1473 -143.274 7.09254e-14 192.736 138.577 -12.2921 
19.0472 -1.54713 -12.4676 26.9756 55.9989 -20.9201 -106.388 -35.3329 2.57718e-14 
8.40571 -2.76147 3.90513 45.4477 -125.796 44.8654 50.7779 -83.9084 52.1171 
31.3106 -59.0648 -43.2787 -7.21556 -17.5917 63.0887 83.7079 52.8013 -50.0229 
-66.5761 -44.6438 45.1698 -104.26 -95.216 -62.2755 -135.963 -74.3936 35.7184 
-101.589 -57.5807 -83.657 -0.710302 -19.7457 83.0782 -48.951 24.4688 9.98303 
-26.5285 11.9482 9.48749 2.20983 24.3768 24.6853 36.6555 1.05544 32.5799 
-52.0909 -51.3242 -49.6101 80.7244 -84.506 -3.74348e-14 -10.3171 20.4658 -50.3286 
-19.087 -51.6863 -27.8444 48.3484 161.756 154.276 -85.4759 -421.769 182.236 
0 0 0 -89.8874 -28.3315 13.6943 -47.1067 65.3358 37.6336 
-29.9001 8.30733 7.20809 140.448 -104.665 -1.28052e-13 -127.233 29.8745 0.275332 
-26.2304 -36.4574 10.7266 372.111 239.961 -18.0215 48.7822 -34.0039 19.3632 
0 0 0 -85.6625 -10.712 8.54597e-16 0 0 0 
-143.958 -324.265 -39.9237 0 0 0 0 0 0 
0 0 0 -48.4639 -48.8946 -0.222003 -205.887 -109.855 -46.3088 
-134.033 -109.99 15.9738 161.918 -227.478 73.3564 83.4106 -162.614 -1.86208 
0 0 0 69.8448 0.868313 -22.4176 8.20584 -76.6802 32.5799 
-48.2103 -34.9472 -21.2699 -39.121 155.329 -5.35698 -221.388 -20.4103 48.3767 
0 0 0 16.4632 36.4847 42.823 0 0 0 
231.797 -172.74 -1.28052e-13 0 0 0 0 0 0 
0 0 0 -83.9737 -125.579 2.10338e-13 111.178 -77.4485 -23.8568 
-11.5442 -157.738 268.663 -119.712 -186.147 35.7184 237.68 106.878 -60.5511 
0 0 0 -221.639 226.728 -43.166 94.0241 -382.443 -22.4953 
-59.0951 143.341 -7.50328 0 0 0 -163.734 -33.0016 -19.6668 
0 0 0 0 0 0 0 0 0 
0 0 0 0 0 0 0 0 0 
0 0 0 0 0 0 0 0 0 
0 0 0 0 0 0 0 0 0 
0 0 0 0 0 0 0 0 0 
0 0 0 0 0 0 0 0 0 
0 0 0 0 0 0 0 0 0 
0 0 0 0 0 0 0 0 0 
0 0 0 0 0 0 0 0 0 
0 0 0 0 0 0 0 0 0 
0 0 0 0 0 0 0 0 0 
0 0 0 0 0 0 0 0 0 
0 0 0 0 0 0 0 0 0 
0 0 0 0 0 0 0 0 0 
0 0 0 0 0 0 0 0 0 

