# vtk DataFile Version 4.0
Generated by LIGGGHTS
ASCII
DATASET POLYDATA
POINTS 682 float
-0.0802926 -0.232777 -0.365655 -0.0637663 -0.150211 -0.0899704 -0.0200142 -0.152484 -0.0875462 
-0.077562 -0.147461 -0.0756877 -0.0191214 -0.12251 -0.0411445 -0.0441857 -0.137266 -0.0387164 
0.0895123 -0.116004 -0.0311417 -0.0497321 -0.125165 -0.0268275 0.0556701 -0.120228 -0.0185312 
0.0623763 -0.114848 -0.00815052 0.0153273 -0.117732 -0.00746304 -0.0129196 -0.104097 0.000727281 
0.0234127 -0.108321 0.00777768 -0.0233866 -0.10484 0.00975818 0.0162314 -0.10808 0.00793432 
0.0457409 -0.10673 0.00997173 0.0174217 -0.103503 0.011628 0.0348335 -0.0798371 0.0114983 
-0.0950215 -0.0787428 0.0114984 -0.0771256 -0.0761852 0.0114983 0.0110659 -0.0792655 0.0114983 
0.0396866 -0.0761011 0.0114983 -0.0751017 -0.0735983 0.0114983 -0.0422826 -0.0750361 0.0114983 
-0.0233605 -0.0738368 0.0114983 0.0343589 -0.0759711 0.0114983 0.0476591 -0.075056 0.0114983 
0.051373 -0.0748007 0.0114983 -0.060367 -0.0724027 0.0114983 -0.019736 -0.0706891 0.0114983 
0.0535804 -0.0707166 0.0114983 -0.0930826 -0.066342 0.0114983 -0.00268069 -0.0670709 0.0114983 
0.0210054 -0.0656197 0.0114983 0.0231636 -0.0687412 0.0114983 0.0728914 -0.0655203 0.0114983 
0.0225227 -0.062889 0.0114983 0.0279934 -0.063637 0.0114983 -0.020811 -0.0600673 0.0114983 
-0.0176394 -0.0590184 0.0114983 -0.0135302 -0.0624042 0.0114983 -0.00390914 -0.0586215 0.0114983 
0.0466461 -0.058798 0.0114983 0.0935047 -0.0591115 0.0114983 -0.0197533 -0.0558137 0.0114983 
0.00853332 -0.0556335 0.0114983 0.0280211 -0.0579341 0.0114983 0.0472389 -0.0553552 0.0114983 
-0.0926219 -0.0539276 0.0114983 -0.0463107 -0.0543971 0.0114983 -0.0191958 -0.0526994 0.0114983 
0.0117826 -0.0530528 0.0116318 0.0187235 -0.0533278 0.0114983 0.0325618 -0.0545394 0.0114983 
-0.0943802 -0.048827 0.0114983 -0.0807345 -0.050139 0.0114983 -0.0498204 -0.0507199 0.0114983 
-0.0363431 -0.0493202 0.0114983 -0.027862 -0.0492276 0.0114983 -0.0164432 -0.0510084 0.0114983 
0.000162785 -0.0507925 0.0114983 0.00398459 -0.0493507 0.0114983 0.056745 -0.0498935 0.0114983 
-0.091028 -0.0476453 0.0114983 -0.0875558 -0.0450428 0.0114983 -0.044103 -0.0457053 0.0114983 
-0.0295408 -0.0448938 0.0114983 -0.0158229 -0.0443834 0.0114983 -0.0111306 -0.0475032 0.0116498 
0.00640183 -0.0472829 0.0114983 0.0114754 -0.0455373 0.0114983 0.0298989 -0.0456451 0.0114983 
0.0599901 -0.0481845 0.0115294 -0.0411138 -0.0425344 0.0114986 -0.0493104 -0.0404696 0.0114987 
-0.03214 -0.0405514 0.0114983 -0.0242252 -0.0374204 0.0114983 -0.0204207 -0.0375075 0.0114983 
-0.0189955 -0.0401877 0.0114983 0.0760157 -0.0377494 0.0114983 -0.0495582 -0.0363228 0.0114983 
-0.0288294 -0.0360892 0.0114983 -0.0143551 -0.0353286 0.0114983 0.00478672 -0.03483 0.0114984 
0.0123094 -0.0352738 0.0114983 0.0265504 -0.0354085 0.0114983 -0.0142019 -0.0321309 0.0114983 
0.00957234 -0.0333497 0.0114983 0.0143816 -0.0327111 0.0114983 0.0466129 -0.0310843 0.0114983 
-0.00519015 -0.0285268 0.0114983 0.0101059 -0.0291578 0.0115291 0.0299013 -0.0276462 0.0114983 
0.0460951 -0.0279018 0.0114983 0.0575791 -0.0289897 0.0114983 0.0632742 -0.0277102 0.0114983 
-0.041394 -0.0233751 0.0115003 -0.00766619 -0.0233983 0.0114979 -0.00304125 -0.0254576 0.0114984 
0.00618532 -0.0259626 0.0114983 0.0251701 -0.0264041 0.0114983 -0.0597402 -0.0203125 0.0114983 
-0.0485902 -0.0206038 0.0114983 -0.0372496 -0.0207784 0.0114983 -0.007461 -0.0197069 0.0114985 
-0.00462616 -0.0228043 0.0114983 -0.00145421 -0.0228856 0.0116199 0.0103429 -0.0226449 0.0115768 
-0.0632477 -0.01703 0.0114983 -0.0420063 -0.0191505 0.0114964 -0.0392588 -0.0166036 0.0114983 
-0.0330802 -0.0168361 0.0114983 0.0222411 -0.0186405 0.0120379 0.0300937 -0.0191686 0.0114997 
0.0402782 -0.0177816 0.0116719 0.057472 -0.0158845 0.0114983 -0.0574231 -0.015275 0.0114983 
-0.0252047 -0.0135365 0.0114983 -0.00989853 -0.0135089 0.0114982 -0.00174696 -0.01424 0.0114983 
0.00398741 -0.0159404 0.0115033 0.00623495 -0.0128135 0.0115034 0.0159556 -0.0161501 0.0117918 
0.0218357 -0.0155158 0.0117825 0.0405125 -0.0142805 0.0119258 -0.0651914 -0.010648 0.0114983 
-0.0621379 -0.0117419 0.0114983 -0.0140671 -0.0106203 0.011496 -0.0101909 -0.0105149 0.0114946 
-0.00274716 -0.0101416 0.0115919 0.000106976 -0.011731 0.0114983 0.00233972 -0.00972788 0.0114982 
0.00572034 -0.00984787 0.0114988 0.0126933 -0.0088185 0.0115034 0.0156571 -0.0123344 0.0115172 
0.018669 -0.0109575 0.01266 0.029932 -0.0118379 0.0114983 -0.031803 -0.00683951 0.0114983 
-0.0222292 -0.0081357 0.0114983 -0.0204042 -0.00562766 0.0114983 -0.0148909 -0.00616715 0.0115993 
-0.0111797 -0.00768771 0.0115144 -0.00755031 -0.0066932 0.0114999 -0.00216334 -0.00657364 0.0115083 
0.00444579 -0.00705829 0.0114991 0.0498627 -0.00860147 0.0114983 0.0543499 -0.00814023 0.0114983 
-0.0732573 -0.00317923 0.0114983 -0.0682083 -0.00531415 0.0121653 -0.052054 -0.00362529 0.0114983 
-0.0381157 -0.00253681 0.0114983 -0.0346481 -0.00372363 0.0114983 -0.0234374 -0.00354695 0.0117287 
-0.0128123 -0.00255408 0.0114984 -0.00433921 -0.00263005 0.0116785 0.00525979 -0.00414018 0.0119596 
0.011885 -0.00397598 0.0114984 0.00950965 -0.00212608 0.0114918 0.0182649 -0.00365692 0.0114988 
0.0351488 -0.00406005 0.0114983 0.0551043 -0.00286731 0.0114983 0.0620162 -0.00251485 0.0114983 
-0.0954467 -0.00163583 0.0114983 -0.0703984 0.000327318 0.0114983 -0.0332203 0.000484952 0.0114983 
-0.0291318 0.00016844 0.0114926 -0.00885207 -0.00115642 0.011647 -0.000345438 -0.00101455 0.0117179 
0.0226024 0.00136661 0.0114995 0.0437033 -0.000448524 0.0114983 0.047761 -0.000844718 0.0114983 
-0.0557274 0.00425826 0.0116492 -0.0400256 0.00477854 0.0115173 -0.0364025 0.00403061 0.0114983 
-0.0316887 0.00311852 0.0114983 -0.0295733 0.00533127 0.0114983 -0.0138138 0.00516321 0.011715 
-0.00973315 0.00209909 0.0114945 -0.00657004 0.0035299 0.0114986 0.00209607 0.00319539 0.0115591 
0.00496029 0.00526496 0.0114983 0.00931503 0.00235047 0.0114983 0.0193435 0.00492345 0.0116178 
0.0237701 0.00419668 0.0114984 0.027602 0.00416054 0.0114989 0.0489114 0.00430572 0.0114983 
0.0518841 0.00487831 0.0114983 -0.0577128 0.0076372 0.0114983 -0.0463363 0.00838156 0.0114983 
-0.0437704 0.00559138 0.0114983 -0.0268282 0.0084351 0.0114983 -0.015805 0.00743573 0.0115054 
-0.00524837 0.00623205 0.0115798 -0.00140238 0.00823758 0.0114983 0.00635695 0.008353 0.0114904 
0.00791866 0.00579653 0.0114976 0.016821 0.00658558 0.0115115 0.0301654 0.00571748 0.0114978 
0.0450311 0.0088027 0.0114984 0.045906 0.00577664 0.0114983 -0.095567 0.0112892 0.0114983 
-0.090018 0.0106687 0.0114983 -0.0264162 0.0116577 0.0115242 -0.0199367 0.0120197 0.0115166 
-0.0173 0.0104351 0.0118667 -0.0131202 0.00885278 0.0114983 -0.010105 0.0107383 0.0116096 
0.00717948 0.0112239 0.0114943 0.0104186 0.00928452 0.0114985 0.0146669 0.0111665 0.0115119 
0.0417464 0.0100458 0.0116643 0.0452595 0.012164 0.0115212 -0.0681281 0.0142859 0.0114983 
-0.0397457 0.0142127 0.0114983 -0.0371153 0.0127425 0.0114941 -0.0148508 0.0127802 0.0115852 
-0.0144064 0.0158069 0.0115034 0.000998393 0.0146025 0.0115003 0.00356081 0.013003 0.0115128 
0.011614 0.0125266 0.0114887 0.0168948 0.0139391 0.0114983 0.0244563 0.0145077 0.0114921 
0.0531889 0.0131166 0.0114983 0.0698979 0.0140047 0.0114983 -0.034451 0.0175297 0.0115607 
-0.00663091 0.0164593 0.011655 0.00319263 0.0170794 0.0114983 0.0136311 0.0169478 0.0115196 
0.0193471 0.0183963 0.0121156 0.022421 0.0185853 0.0115015 0.044562 0.0168416 0.0114983 
-0.0783358 0.021875 0.0114983 -0.0174305 0.0198784 0.0119492 -0.00631698 0.0210845 0.0114986 
-0.00343211 0.0219057 0.0114991 -0.000379562 0.0209538 0.0114983 0.00368531 0.0207698 0.0115056 
0.00879917 0.0204874 0.0114983 0.0153406 0.0203758 0.0114983 0.0283473 0.0210393 0.0117764 
0.0421125 0.0201468 0.0114983 0.0517084 0.0194325 0.0114983 -0.095534 0.0243811 0.0114983 
-0.091508 0.0233741 0.0114983 -0.0183419 0.0235048 0.0119517 0.00025241 0.0240489 0.0114983 
0.0045654 0.0260333 0.0114943 0.0174415 0.0260915 0.0114983 0.0448702 0.0232086 0.0115054 
0.0457171 0.0260894 0.011499 -0.0424167 0.0296819 0.0114983 -0.0401288 0.0276866 0.0114983 
-0.0376813 0.0298567 0.0114986 -0.0287852 0.0278685 0.0114983 0.00175191 0.0270677 0.0114967 
0.0274212 0.0277131 0.0114983 0.0344846 0.0267519 0.0114983 0.0384042 0.0304409 0.0114983 
-0.0945529 0.0301292 0.0114983 -0.0372692 0.0330355 0.0114983 -0.0338958 0.0307432 0.0114983 
-0.0308399 0.0309036 0.0114983 -0.0278878 0.0314801 0.0114997 -0.0205218 0.0314967 0.0114983 
-0.0107804 0.0310981 0.0115596 -0.00494256 0.0319832 0.0115604 0.00146754 0.0300692 0.0114983 
-0.00145983 0.0322683 0.0114975 0.00418908 0.0316939 0.0114983 0.014676 0.0312539 0.011498 
0.0257908 0.0332111 0.0114983 0.0342968 0.0302915 0.0115743 0.0357187 0.0330203 0.0114984 
0.0439447 0.0331278 0.0114983 -0.034719 0.036309 0.0114983 -0.0129837 0.0337953 0.0114983 
-0.00953238 0.0339183 0.0114984 0.0147559 0.0347463 0.0114983 0.0391923 0.0352018 0.0114983 
-0.0933543 0.0404242 0.0114983 -0.0338386 0.0406295 0.0114983 -0.0300794 0.0380694 0.0114983 
0.0141094 0.0381375 0.0114983 0.0220612 0.0382024 0.0114984 0.0642911 0.0404133 0.0114983 
-0.027979 0.0418627 0.0114983 -0.0255737 0.0441931 0.0114983 -0.0221988 0.0445762 0.0115173 
-0.0171885 0.0437177 0.0114983 -0.0127879 0.0418355 0.0114983 -0.00978617 0.041643 0.0114983 
-0.0761907 0.0464869 0.0114983 -0.0148831 0.0467587 0.0114983 0.00778509 0.0446571 0.0115448 
0.0733502 0.0454192 0.0114983 -0.0473408 0.0477729 0.0114983 -0.0283005 0.0507019 0.0114983 
0.0196888 0.0504022 0.011517 0.040816 0.0481953 0.0114983 0.0448449 0.0477742 0.0114983 
0.054636 0.0483816 0.0114983 -0.0214916 0.0535453 0.0114983 -0.0173901 0.0532756 0.0114983 
-0.00989397 0.0534169 0.0114983 0.0045568 0.05373 0.0114983 0.00782759 0.0537457 0.0114983 
0.0398834 0.0548801 0.0114983 0.0419133 0.0523306 0.0114983 0.0571546 0.0538001 0.0114983 
-0.0907764 0.0577602 0.0114983 0.00498502 0.0567942 0.0114983 0.0502518 0.0573602 0.0114983 
[...]
POINT_DATA 682
FIELD FieldData 7
id 1 682 int
48 82 160 282 30 89 12 6 105 
52 206 356 59 243 77 397 363 265 
9 137 112 393 343 229 73 10 200 
189 252 83 50 283 267 108 173 19 
328 76 18 8 386 307 319 125 90 
406 110 97 71 242 85 514 251 75 
47 179 290 281 268 161 192 333 11 
45 107 202 32 152 498 458 418 433 
526 425 353 378 218 308 240 23 358 
314 371 475 101 63 352 438 487 448 
540 214 525 292 164 249 368 460 120 
263 109 211 197 510 172 127 521 339 
436 84 344 320 603 482 585 305 205 
476 303 72 123 340 139 610 538 64 
153 25 499 146 459 294 278 279 524 
500 366 36 527 315 250 150 126 185 
373 384 295 114 495 227 228 412 474 
473 395 456 288 244 563 355 342 201 
217 74 96 226 592 121 163 346 302 
174 239 404 162 488 332 472 564 293 
275 447 586 579 573 420 411 204 334 
253 407 199 576 468 341 484 512 213 
136 369 210 61 316 604 419 552 266 
296 539 360 461 548 291 289 432 231 
370 421 497 485 392 198 165 257 264 
508 430 537 424 589 309 86 513 379 
140 230 519 536 318 408 422 329 33 
277 471 331 483 382 171 357 276 178 
255 457 445 449 330 450 133 385 102 
321 437 186 354 99 100 238 463 215 
399 462 87 22 381 38 151 70 49 
122 423 405 148 509 304 21 60 203 
269 317 383 177 256 372 396 212 51 
65 398 241 159 237 20 394 224 254 
225 134 223 176 98 39 62 88 135 
306 26 216 175 58 188 367 46 111 
191 184 149 7 113 166 138 34 410 
57 147 35 95 37 24 187 301 124 
13 208 4 2 324 119 261 262 154 
222 258 416 68 168 375 325 260 132 
409 167 92 142 300 529 481 144 313 
523 348 40 16 541 42 528 336 285 
591 365 414 588 157 546 156 464 494 
219 489 452 413 559 67 323 568 543 
15 467 335 248 29 502 600 496 587 
595 615 506 550 429 155 14 578 337 
571 387 129 566 402 284 507 274 131 
465 572 141 364 443 612 611 560 504 
361 3 403 181 442 193 391 347 469 
444 535 235 630 415 247 362 531 455 
602 246 380 170 115 574 614 417 207 
79 575 158 617 533 562 376 91 286 
624 427 582 326 390 492 621 351 480 
232 94 501 311 195 466 180 628 522 
221 350 245 145 81 190 511 532 544 
545 451 271 183 345 116 27 431 565 
516 298 41 434 259 359 520 5 491 
440 117 66 236 490 55 577 613 377 
605 454 580 590 17 287 338 106 618 
322 270 426 273 555 400 327 547 515 
554 280 220 169 534 428 44 435 401 
272 446 53 486 209 551 349 503 310 
54 196 103 69 312 478 297 80 479 
128 388 182 93 43 453 374 299 130 
194 234 28 104 1 78 56 118 233 
31 389 477 518 439 593 594 598 583 
623 561 626 517 557 599 441 608 596 
616 625 627 584 609 597 143 570 505 
542 629 620 558 567 493 553 530 631 
556 607 470 619 601 642 606 549 581 
635 622 638 639 634 636 569 643 633 
632 637 655 640 641 651 646 656 652 
647 653 648 650 654 645 649 660 644 
669 657 661 659 664 658 663 667 662 
665 666 678 668 679 674 676 677 681 
671 670 672 675 673 682 680 
type 1 682 int
1 1 1 1 1 1 1 1 1 
1 1 1 1 1 1 1 1 1 
1 1 1 1 1 1 1 1 1 
1 1 1 1 1 1 1 1 1 
1 1 1 1 1 1 1 1 1 
1 1 1 1 1 1 1 1 1 
1 1 1 1 1 1 1 1 1 
1 1 1 1 1 1 1 1 1 
1 1 1 1 1 1 1 1 1 
1 1 1 1 1 1 1 1 1 
1 1 1 1 1 1 1 1 1 
1 1 1 1 1 1 1 1 1 
1 1 1 1 1 1 1 1 1 
1 1 1 1 1 1 1 1 1 
1 1 1 1 1 1 1 1 1 
1 1 1 1 1 1 1 1 1 
1 1 1 1 1 1 1 1 1 
1 1 1 1 1 1 1 1 1 
1 1 1 1 1 1 1 1 1 
1 1 1 1 1 1 1 1 1 
1 1 1 1 1 1 1 1 1 
1 1 1 1 1 1 1 1 1 
1 1 1 1 1 1 1 1 1 
1 1 1 1 1 1 1 1 1 
1 1 1 1 1 1 1 1 1 
1 1 1 1 1 1 1 1 1 
1 1 1 1 1 1 1 1 1 
1 1 1 1 1 1 1 1 1 
1 1 1 1 1 1 1 1 1 
1 1 1 1 1 1 1 1 1 
1 1 1 1 1 1 1 1 1 
1 1 1 1 1 1 1 1 1 
1 1 1 1 1 1 1 1 1 
1 1 1 1 1 1 1 1 1 
1 1 1 1 1 1 1 1 1 
1 1 1 1 1 1 1 1 1 
1 1 1 1 1 1 1 1 1 
1 1 1 1 1 1 1 1 1 
1 1 1 1 1 1 1 1 1 
1 1 1 1 1 1 1 1 1 
1 1 1 1 1 1 1 1 1 
1 1 1 1 1 1 1 1 1 
1 1 1 1 1 1 1 1 1 
1 1 1 1 1 1 1 1 1 
1 1 1 1 1 1 1 1 1 
1 1 1 1 1 1 1 1 1 
1 1 1 1 1 1 1 1 1 
1 1 1 1 1 1 1 1 1 
1 1 1 1 1 1 1 1 1 
1 1 1 1 1 1 1 1 1 
1 1 1 1 1 1 1 1 1 
1 1 1 1 1 1 1 1 1 
1 1 1 1 1 1 1 1 1 
1 1 1 1 1 1 1 1 1 
1 1 1 1 1 1 1 1 1 
1 1 1 1 1 1 1 1 1 
1 1 1 1 1 1 1 1 1 
1 1 1 1 1 1 1 1 1 
1 1 1 1 1 1 1 1 1 
1 1 1 1 1 1 1 1 1 
1 1 1 1 1 1 1 1 1 
1 1 1 1 1 1 1 1 1 
1 1 1 1 1 1 1 1 1 
1 1 1 1 1 1 1 1 1 
1 1 1 1 1 1 1 1 1 
1 1 1 1 1 1 1 1 1 
1 1 1 1 1 1 1 1 1 
1 1 1 1 1 1 1 1 1 
1 1 1 1 1 1 1 1 1 
1 1 1 1 1 1 1 1 1 
1 1 1 1 1 1 1 1 1 
1 1 1 1 1 1 1 1 1 
1 1 1 1 1 1 1 1 1 
1 1 1 1 1 1 1 1 1 
1 1 1 1 1 1 1 1 1 
1 1 1 1 1 1 1 
i 3 682 int
0 0 0 0 0 0 0 0 0 
0 0 0 0 0 0 0 0 0 
0 0 0 0 0 0 0 0 0 
0 0 0 0 0 0 0 0 0 
0 0 0 0 0 0 0 0 0 
0 0 0 0 0 0 0 0 0 
0 0 0 0 0 0 0 0 0 
0 0 0 0 0 0 0 0 0 
0 0 0 0 0 0 0 0 0 
0 0 0 0 0 0 0 0 0 
0 0 0 0 0 0 0 0 0 
0 0 0 0 0 0 0 0 0 
0 0 0 0 0 0 0 0 0 
0 0 0 0 0 0 0 0 0 
0 0 0 0 0 0 0 0 0 
0 0 0 0 0 0 0 0 0 
0 0 0 0 0 0 0 0 0 
0 0 0 0 0 0 0 0 0 
0 0 0 0 0 0 0 0 0 
0 0 0 0 0 0 0 0 0 
0 0 0 0 0 0 0 0 0 
0 0 0 0 0 0 0 0 0 
0 0 0 0 0 0 0 0 0 
0 0 0 0 0 0 0 0 0 
0 0 0 0 0 0 0 0 0 
0 0 0 0 0 0 0 0 0 
0 0 0 0 0 0 0 0 0 
0 0 0 0 0 0 0 0 0 
0 0 0 0 0 0 0 0 0 
0 0 0 0 0 0 0 0 0 
0 0 0 0 0 0 0 0 0 
0 0 0 0 0 0 0 0 0 
0 0 0 0 0 0 0 0 0 
0 0 0 0 0 0 0 0 0 
0 0 0 0 0 0 0 0 0 
0 0 0 0 0 0 0 0 0 
0 0 0 0 0 0 0 0 0 
0 0 0 0 0 0 0 0 0 
0 0 0 0 0 0 0 0 0 
0 0 0 0 0 0 0 0 0 
0 0 0 0 0 0 0 0 0 
0 0 0 0 0 0 0 0 0 
0 0 0 0 0 0 0 0 0 
0 0 0 0 0 0 0 0 0 
0 0 0 0 0 0 0 0 0 
0 0 0 0 0 0 0 0 0 
0 0 0 0 0 0 0 0 0 
0 0 0 0 0 0 0 0 0 
0 0 0 0 0 0 0 0 0 
0 0 0 0 0 0 0 0 0 
0 0 0 0 0 0 0 0 0 
0 0 0 0 0 0 0 0 0 
0 0 0 0 0 0 0 0 0 
0 0 0 0 0 0 0 0 0 
0 0 0 0 0 0 0 0 0 
0 0 0 0 0 0 0 0 0 
0 0 0 0 0 0 0 0 0 
0 0 0 0 0 0 0 0 0 
0 0 0 0 0 0 0 0 0 
0 0 0 0 0 0 0 0 0 
0 0 0 0 0 0 0 0 0 
0 0 0 0 0 0 0 0 0 
0 0 0 0 0 0 0 0 0 
0 0 0 0 0 0 0 0 0 
0 0 0 0 0 0 0 0 0 
0 0 0 0 0 0 0 0 0 
0 0 0 0 0 0 0 0 0 
0 0 0 0 0 0 0 0 0 
0 0 0 0 0 0 0 0 0 
0 0 0 0 0 0 0 0 0 
0 0 0 0 0 0 0 0 0 
0 0 0 0 0 0 0 0 0 
0 0 0 0 0 0 0 0 0 
0 0 0 0 0 0 0 0 0 
0 0 0 0 0 0 0 0 0 
0 0 0 0 0 0 0 0 0 
0 0 0 0 0 0 0 0 0 
0 0 0 0 0 0 0 0 0 
0 0 0 0 0 0 0 0 0 
0 0 0 0 0 0 0 0 0 
0 0 0 0 0 0 0 0 0 
0 0 0 0 0 0 0 0 0 
0 0 0 0 0 0 0 0 0 
0 0 0 0 0 0 0 0 0 
0 0 0 0 0 0 0 0 0 
0 0 0 0 0 0 0 0 0 
0 0 0 0 0 0 0 0 0 
0 0 0 0 0 0 0 0 0 
0 0 0 0 0 0 0 0 0 
0 0 0 0 0 0 0 0 0 
0 0 0 0 0 0 0 0 0 
0 0 0 0 0 0 0 0 0 
0 0 0 0 0 0 0 0 0 
0 0 0 0 0 0 0 0 0 
0 0 0 0 0 0 0 0 0 
0 0 0 0 0 0 0 0 0 
0 0 0 0 0 0 0 0 0 
0 0 0 0 0 0 0 0 0 
0 0 0 0 0 0 0 0 0 
0 0 0 0 0 0 0 0 0 
0 0 0 0 0 0 0 0 0 
0 0 0 0 0 0 0 0 0 
0 0 0 0 0 0 0 0 0 
0 0 0 0 0 0 0 0 0 
0 0 0 0 0 0 0 0 0 
0 0 0 0 0 0 0 0 0 
0 0 0 0 0 0 0 0 0 
0 0 0 0 0 0 0 0 0 
0 0 0 0 0 0 0 0 0 
0 0 0 0 0 0 0 0 0 
0 0 0 0 0 0 0 0 0 
0 0 0 0 0 0 0 0 0 
0 0 0 0 0 0 0 0 0 
0 0 0 0 0 0 0 0 0 
0 0 0 0 0 0 0 0 0 
0 0 0 0 0 0 0 0 0 
0 0 0 0 0 0 0 0 0 
0 0 0 0 0 0 0 0 0 
0 0 0 0 0 0 0 0 0 
0 0 0 0 0 0 0 0 0 
0 0 0 0 0 0 0 0 0 
0 0 0 0 0 0 0 0 0 
0 0 0 0 0 0 0 0 0 
0 0 0 0 0 0 0 0 0 
0 0 0 0 0 0 0 0 0 
0 0 0 0 0 0 0 0 0 
0 0 0 0 0 0 0 0 0 
0 0 0 0 0 0 0 0 0 
0 0 0 0 0 0 0 0 0 
0 0 0 0 0 0 0 0 0 
0 0 0 0 0 0 0 0 0 
0 0 0 0 0 0 0 0 0 
0 0 0 0 0 0 0 0 0 
0 0 0 0 0 0 0 0 0 
0 0 0 0 0 0 0 0 0 
0 0 0 0 0 0 0 0 0 
0 0 0 0 0 0 0 0 0 
0 0 0 0 0 0 0 0 0 
0 0 0 0 0 0 0 0 0 
0 0 0 0 0 0 0 0 0 
0 0 0 0 0 0 0 0 0 
0 0 0 0 0 0 0 0 0 
0 0 0 0 0 0 0 0 0 
0 0 0 0 0 0 0 0 0 
0 0 0 0 0 0 0 0 0 
0 0 0 0 0 0 0 0 0 
0 0 0 0 0 0 0 0 0 
0 0 0 0 0 0 0 0 0 
0 0 0 0 0 0 0 0 0 
0 0 0 0 0 0 0 0 0 
0 0 0 0 0 0 0 0 0 
0 0 0 0 0 0 0 0 0 
0 0 0 0 0 0 0 0 0 
0 0 0 0 0 0 0 0 0 
0 0 0 0 0 0 0 0 0 
0 0 0 0 0 0 0 0 0 
0 0 0 0 0 0 0 0 0 
0 0 0 0 0 0 0 0 0 
0 0 0 0 0 0 0 0 0 
0 0 0 0 0 0 0 0 0 
0 0 0 0 0 0 0 0 0 
0 0 0 0 0 0 0 0 0 
0 0 0 0 0 0 0 0 0 
0 0 0 0 0 0 0 0 0 
0 0 0 0 0 0 0 0 0 
0 0 0 0 0 0 0 0 0 
0 0 0 0 0 0 0 0 0 
0 0 0 0 0 0 0 0 0 
0 0 0 0 0 0 0 0 0 
0 0 0 0 0 0 0 0 0 
0 0 0 0 0 0 0 0 0 
0 0 0 0 0 0 0 0 0 
0 0 0 0 0 0 0 0 0 
0 0 0 0 0 0 0 0 0 
0 0 0 0 0 0 0 0 0 
0 0 0 0 0 0 0 0 0 
0 0 0 0 0 0 0 0 0 
0 0 0 0 0 0 0 0 0 
0 0 0 0 0 0 0 0 0 
0 0 0 0 0 0 0 0 0 
0 0 0 0 0 0 0 0 0 
0 0 0 0 0 0 0 0 0 
0 0 0 0 0 0 0 0 0 
0 0 0 0 0 0 0 0 0 
0 0 0 0 0 0 0 0 0 
0 0 0 0 0 0 0 0 0 
0 0 0 0 0 0 0 0 0 
0 0 0 0 0 0 0 0 0 
0 0 0 0 0 0 0 0 0 
0 0 0 0 0 0 0 0 0 
0 0 0 0 0 0 0 0 0 
0 0 0 0 0 0 0 0 0 
0 0 0 0 0 0 0 0 0 
0 0 0 0 0 0 0 0 0 
0 0 0 0 0 0 0 0 0 
0 0 0 0 0 0 0 0 0 
0 0 0 0 0 0 0 0 0 
0 0 0 0 0 0 0 0 0 
0 0 0 0 0 0 0 0 0 
0 0 0 0 0 0 0 0 0 
0 0 0 0 0 0 0 0 0 
0 0 0 0 0 0 0 0 0 
0 0 0 0 0 0 0 0 0 
0 0 0 0 0 0 0 0 0 
0 0 0 0 0 0 0 0 0 
0 0 0 0 0 0 0 0 0 
0 0 0 0 0 0 0 0 0 
0 0 0 0 0 0 0 0 0 
0 0 0 0 0 0 0 0 0 
0 0 0 0 0 0 0 0 0 
0 0 0 0 0 0 0 0 0 
0 0 0 0 0 0 0 0 0 
0 0 0 0 0 0 0 0 0 
0 0 0 0 0 0 0 0 0 
0 0 0 0 0 0 0 0 0 
0 0 0 0 0 0 0 0 0 
0 0 0 0 0 0 0 0 0 
0 0 0 0 0 0 0 0 0 
0 0 0 0 0 0 0 0 0 
0 0 0 0 0 0 0 0 0 
0 0 0 0 0 0 0 0 0 
0 0 0 0 0 0 0 0 0 
0 0 0 0 0 0 0 0 0 
0 0 0 0 0 0 0 0 0 
0 0 0 0 0 0 0 0 0 
0 0 0 0 0 0 0 0 0 
0 0 0 0 0 0 0 0 0 
0 0 0 
v 3 682 double
-0.176432 -0.479133 -2.72025 -0.150544 -0.34945 -1.41097 -0.00995307 -0.36973 -1.39401 
-0.235423 -0.349844 -1.30828 -0.0504897 -0.215186 -1.02589 -0.219404 -0.368802 -0.992581 
-0.0652621 -0.178092 -0.916962 -0.130769 -0.28505 -0.867156 0.110456 -0.254487 -0.780238 
0.119796 -0.234867 -0.620901 0.0931829 -0.278324 -0.625791 0.0372947 -0.0785268 -0.456898 
0.106629 -0.303408 -0.270196 -0.0723875 -0.258201 -0.184794 0.0320011 -0.30201 -0.265539 
0.161289 -0.384775 -0.173087 0.0225701 -0.264759 -0.130556 0.0729133 -0.191106 -4.64296e-14 
0.0280017 -0.128658 -0.000166339 -0.157703 -0.152738 -2.12729e-15 0.00527742 -0.179249 -3.22343e-08 
0.077151 -0.155151 -1.48249e-14 -0.163731 -0.131249 -2.83695e-08 -0.0883677 -0.164229 -5.43318e-14 
-0.0598722 -0.124393 9.77819e-16 0.0662837 -0.176141 -1.48249e-14 0.190628 -0.180203 2.46819e-14 
0.175599 -0.259601 7.99923e-14 -0.116977 -0.146521 -3.06277e-14 -0.0137142 -0.123754 -6.92356e-15 
0.116578 -0.107457 -6.92278e-15 0.0391133 -0.100647 4.80475e-14 -0.0712484 -0.178451 4.8386e-14 
-0.0261645 -0.126083 -1.03022e-09 0.0407966 -0.144687 9.66976e-12 0.152919 -0.112596 7.99923e-14 
0.0441874 -0.142081 5.55694e-09 0.039098 -0.131888 6.41895e-14 -0.0546401 -0.0989205 9.77824e-16 
-0.0356301 -0.116554 -1.48249e-14 -0.0119715 -0.398375 -6.13642e-15 -0.0834311 -0.129916 5.62874e-14 
0.127005 -0.163009 3.25825e-14 -0.0316076 -0.189082 -1.48249e-14 -0.013493 -0.0783549 9.77811e-16 
-0.0768347 -0.242228 8.87995e-15 0.0487322 -0.110069 -6.22331e-14 0.0749032 -0.13184 7.20901e-14 
0.0308279 -0.0492269 -1.48249e-14 -0.146195 -0.170031 -2.22848e-07 -0.0252605 -0.0719961 -7.01345e-14 
-0.00681587 -0.226854 -0.0303465 0.0528025 -0.0461127 -7.01337e-14 0.0193322 -0.0994086 7.20901e-14 
0.0261318 -0.0764918 -3.85298e-14 -0.207955 -0.100323 1.67805e-14 -0.13632 -0.124816 7.05096e-07 
-0.0918492 -0.106058 -7.01337e-14 -0.0515001 -0.0874587 5.62866e-14 -0.0123001 -0.0813551 4.8386e-14 
-0.0113509 -0.129064 -3.06269e-14 0.00174516 -0.123609 -6.22331e-14 0.0819189 -0.0980738 -7.80359e-14 
-0.0614873 -0.0973283 9.77814e-16 -0.0516919 -0.0955993 1.84742e-10 -0.0908126 -0.0969936 8.87996e-15 
-0.0762823 -0.0847877 -6.22331e-14 -0.108736 -0.0856684 -7.01337e-14 -0.097046 -0.241547 -0.0292594 
0.00656257 -0.125271 1.67805e-14 0.0489767 -0.134619 -8.59372e-14 -0.0696362 -0.0547325 5.4955e-05 
0.42805 -0.354129 -0.0210695 -0.0677302 -0.0574222 -0.000142429 -0.253994 -0.161815 -0.000962159 
-0.0490402 -0.156876 -7.80359e-14 -0.053848 -0.0704437 -6.92278e-15 -0.0413033 -0.0566743 7.20901e-14 
-0.0652517 -0.0540092 -1.48911e-14 0.1155 -0.0691733 1.67805e-14 -0.263841 -0.0904291 -2.55851e-05 
-0.0422761 -0.0507528 9.78597e-16 -0.0638963 -0.086607 -7.80366e-14 0.0520677 -0.148934 -0.000278991 
0.00600633 -0.147214 -6.22331e-14 0.192128 -0.0893434 7.20909e-14 -0.0323953 -0.0778929 9.91063e-16 
0.0139567 -0.0998245 -4.64296e-14 0.0200348 -0.146984 -6.22331e-14 0.145157 -0.0391725 -2.29626e-14 
-0.0049849 -0.0189293 1.32819e-05 -0.0359874 -0.123159 -0.031096 0.0599066 -0.113818 -2.27284e-14 
0.1245 -0.0363319 2.96142e-05 0.121053 -0.027244 1.67798e-14 0.181906 -0.0473008 5.62874e-14 
-0.101226 -0.0531391 0.0110351 -0.0239897 -0.0823169 0.000131082 -0.0306037 -0.0508205 -8.7473e-05 
-0.0532132 -0.111164 7.20901e-14 0.0110105 -0.0768238 5.01345e-11 -0.114304 -0.036751 -7.80359e-14 
-0.138836 -0.0540601 -3.85298e-14 -0.0274457 -0.0612313 -4.09409e-06 -0.0118228 -0.0709318 0.00100676 
-0.0216777 -0.0337273 2.95951e-05 0.0205694 -0.0741288 0.00211196 0.0767376 -0.0402689 0.014597 
-0.188917 -0.0741312 4.45963e-10 -0.0930655 -0.0427567 0.000452737 -0.0717492 -0.0273378 1.63218e-06 
-0.0419311 -0.0644742 1.36823e-14 0.105621 -0.0438247 -0.0512512 0.114676 -0.069122 0.00941405 
0.501556 0.0746821 0.0941076 0.100754 0.00479008 -3.06276e-14 -0.0788297 -0.153578 -1.13849e-07 
-0.0483649 -0.105364 -6.35818e-10 -0.0206445 -0.0199936 0.000100834 -0.0588088 0.00314633 1.26082e-13 
0.0302214 -0.0503302 0.00120112 0.0837071 0.00358566 0.0142828 0.00250143 -0.176099 0.102512 
0.308822 0.0785404 0.0490456 0.209741 0.105748 0.116387 -0.129932 -0.0131509 -4.64296e-14 
-0.117158 -0.00206792 -7.80359e-14 -0.0731682 0.00553518 -0.000724123 -0.00697462 -0.0966654 -0.00205617 
0.0283627 -0.0238544 -0.00158141 0.0211941 -0.0304521 -0.000237305 0.000326418 -0.0118533 0.000248762 
0.041636 0.0104394 -0.000606718 -0.00878584 0.114624 0.0103265 0.0271486 -0.0161731 0.0179326 
-0.0461982 -0.00477949 0.209696 0.0815193 -0.0150792 0.000230309 -0.0789325 0.0334005 7.85182e-12 
-0.043381 -0.0266971 3.05037e-08 -0.0786274 0.00314925 4.05669e-07 -0.109358 -0.106625 0.0117973 
0.0225158 -0.0655631 0.0622323 -0.008691 -0.0668754 -0.00109373 0.0177116 -0.009586 -0.00516242 
-0.00413236 -0.00193654 -0.00250071 0.110329 0.0286604 -7.01345e-14 0.145883 0.00230105 4.04847e-14 
-0.152383 -0.00313868 -6.22331e-14 -0.422662 -0.124713 0.0166668 -0.0820759 0.00560768 4.8386e-14 
-0.0618661 0.014415 -9.30361e-14 -0.0320423 0.00965702 1.86267e-12 -0.0959863 -0.0898024 0.152463 
-0.0147421 -0.0313915 -0.000348472 0.0531621 -0.00420992 0.0141781 0.0568444 0.00462001 -0.0911897 
0.0234969 -0.0224384 -0.000122441 0.0173616 -0.0833844 -0.012627 0.0954223 0.053225 0.00529853 
0.100257 0.00280619 -6.92277e-15 0.119178 0.0803878 8.33414e-08 0.141297 -0.0149811 -6.92355e-15 
0.00792872 -0.035577 -7.01337e-14 -0.152815 0.0208366 -4.64288e-14 -0.0903033 0.142813 7.74544e-08 
-0.0863999 0.0418076 0.0646256 0.00563916 0.0255575 -0.00456688 -0.0227332 -0.00664996 -0.119241 
0.0173958 0.0115936 -0.0172713 0.142598 -0.0299287 -3.9818e-05 0.111336 -0.055127 7.99923e-14 
-0.0532212 -0.0663932 -0.0109107 -0.0594888 -0.0166248 -0.00147065 -0.0533065 0.0338597 -4.7417e-11 
-0.0935338 0.0650475 -5.41741e-07 -0.0391712 0.0277309 1.80369e-06 -0.0225103 0.0401449 -0.0499294 
-0.0405951 0.0207592 -0.0336191 0.0470622 -0.00936807 -0.00437776 0.022719 0.0703657 -0.0397989 
-0.00512853 0.0010894 -0.00017901 0.0635624 -0.0117664 3.24444e-14 0.0386564 0.0723547 0.0586392 
0.0463727 0.0117197 0.000946138 0.0702619 -0.01809 -0.000170899 0.10882 -0.0348095 3.87891e-08 
0.104993 -0.0261725 -4.64288e-14 -0.123357 0.00969163 4.38348e-12 -0.0707427 -0.0216026 -6.22324e-14 
-0.0774216 0.00436337 2.4685e-14 -0.0542077 0.0305018 3.40993e-14 -0.0275952 0.0293924 0.00338277 
-0.0142569 0.0400407 -0.177492 0.0141838 0.00567176 -1.80266e-10 0.00196937 -0.0346275 0.000828415 
0.0108341 -0.0318773 0.0021118 -0.0366453 -0.0128893 -0.00330852 0.0727584 -0.019726 0.002565 
0.141748 0.0284908 -0.000112001 0.0818517 -0.0145069 -2.24388e-05 0.0155589 -0.0293589 -6.75013e-14 
-0.244169 0.0115509 -4.64288e-14 -0.0661602 -0.0318678 -0.0732693 -0.117358 0.048834 0.00203202 
-0.114194 -0.0254366 0.136798 -0.0260957 0.0113507 3.05821e-05 -0.123516 0.0937328 -0.00232432 
-0.061957 -0.00857429 0.00999306 0.00101968 0.0103767 0.0001142 0.135582 0.100662 -0.000502176 
0.0293558 0.0932379 0.0527979 0.1768 0.0318594 -0.0015407 -0.126487 -0.000192742 -6.92278e-15 
-0.172146 -0.0671888 -1.74849e-07 -0.154469 -0.0345538 -0.0584827 -0.129705 0.044075 -0.00697728 
-0.0054443 0.0468446 -0.0120316 0.0705707 0.0595744 -0.0669246 0.0348581 0.0166316 0.00603299 
-0.0119634 0.053025 0.00114306 0.104741 0.0332241 1.3312e-11 0.106012 0.0366878 -0.00293694 
0.120675 0.00355795 -4.64296e-14 0.154376 -0.053045 9.77819e-16 -0.160061 -0.0515701 -0.0158943 
0.00562065 -0.140032 0.00813823 0.0705082 -0.00551391 4.04854e-14 -0.0909567 -0.025161 0.011816 
0.127094 0.00860564 -0.0756852 0.0229999 0.0103355 0.000753485 0.128209 0.059332 -8.59365e-14 
-0.167766 0.0350649 7.20901e-14 -0.0188496 0.0560899 -0.046307 -0.00844637 0.0576886 -0.000429784 
0.00970039 0.00570056 0.000752882 0.0246933 0.0117841 -1.12717e-12 0.0387945 -0.0443442 0.00917546 
0.109769 0.0477153 6.47272e-11 0.0506059 0.0752031 2.75585e-08 -0.0286158 0.0647838 -0.014344 
0.14084 0.133603 1.46863e-12 0.171406 0.00122047 4.04854e-14 0.00641046 0.021477 -7.01337e-14 
0.0430987 0.0440392 8.87996e-15 -0.112222 0.133594 0.0438678 -0.0301952 0.0378789 -1.06624e-09 
-0.0016545 0.0468599 0.00474151 0.00959076 0.0692568 -2.16742e-09 0.128959 0.0661451 -0.00240554 
0.100112 0.0784779 0.000222589 -0.0517196 0.0318749 -4.64288e-14 -0.0496264 0.0324816 4.83852e-14 
-0.0596749 0.0782216 -0.000681216 -0.0227466 0.0131217 -1.6346e-10 0.00213179 0.0576979 -0.000824833 
0.151768 0.117829 -5.77278e-12 0.138708 0.0999108 -3.06269e-14 0.140652 0.162634 -9.2417e-13 
0.015963 0.046558 -5.43325e-14 -0.0553639 0.0889158 6.09274e-09 -0.0340348 0.0463157 -3.68474e-06 
-0.0210248 0.0405607 5.06706e-05 -0.025093 0.0874269 0.00335958 -0.0168686 0.082855 4.04854e-14 
0.0278393 0.0356195 -0.0240025 0.0420134 0.120456 -0.0341108 0.0146292 0.0398526 1.31897e-11 
0.0158382 0.0823754 0.00666656 0.00425309 0.086837 -0.000105996 -0.0146101 0.0473306 -0.000733195 
0.0845367 0.147815 2.53729e-14 0.110342 0.040608 -0.0225936 0.0585183 0.0784221 -7.88285e-05 
0.0724148 0.0488648 4.83852e-14 -0.0688001 0.0874236 -7.01345e-14 -0.0132102 0.07705 3.99383e-10 
0.0295232 0.0410535 -7.44934e-05 0.0665246 0.0978278 -3.17359e-11 0.0626426 0.0671174 7.99915e-14 
0.0267461 0.128153 -4.64296e-14 -0.0723146 0.10641 -7.80358e-14 -0.0637864 0.0710961 -5.43325e-14 
0.0497942 0.112957 8.96534e-13 -0.00214723 0.196938 -0.000219208 0.273053 0.12427 3.25833e-14 
0.00131626 0.0799643 -8.59372e-14 -0.0368624 0.116567 4.29314e-06 0.0020238 0.233084 -0.0503427 
0.0663358 0.0839818 -6.92355e-15 0.027846 0.0947062 4.05253e-10 0.0285505 0.0956767 -3.70591e-10 
-0.0157026 0.112592 7.99915e-14 0.000574276 0.134415 4.8386e-14 0.138506 0.189712 -0.0270633 
0.202941 0.178992 -5.43325e-14 -0.0786047 0.0960862 -3.06276e-14 -0.041004 0.0866999 5.62866e-14 
-0.0171101 0.163266 0.0110726 0.0835024 0.11061 -6.92355e-15 0.106739 0.0813037 8.87918e-15 
0.0854855 0.0865169 1.67805e-14 -0.0738386 0.0694024 7.20922e-14 -0.0171461 0.120732 -1.14747e-15 
0.0266883 0.0926467 8.87919e-15 -0.0312234 0.0972715 -1.78499e-07 -0.0214771 0.0934466 3.25825e-14 
0.0607293 0.138102 9.69083e-16 0.0436619 0.105882 -2.2715e-14 0.116987 0.0990845 -4.64288e-14 
0.0395284 0.0702911 4.83852e-14 -0.00415538 0.102828 -2.38458e-08 0.0897284 0.0922176 -6.92355e-15 
-0.0321786 0.114373 -2.54565e-05 -0.00348859 0.116333 -1.48249e-14 -0.00317016 0.10639 -6.92355e-15 
-0.276491 0.116283 5.62866e-14 -0.00217578 0.111984 5.62874e-14 0.037703 0.113635 -7.01345e-14 
0.0674929 0.110858 8.87996e-15 -0.0872019 0.232078 2.24253e-09 0.0179084 0.160334 -7.80359e-14 
0.0819195 0.196512 -1.48249e-14 -0.0534662 -0.0888359 -3.8529e-14 -0.034792 0.0322367 0.0129991 
-0.205584 0.178029 2.46819e-14 0.143523 0.216519 9.78591e-16 -0.00220054 0.0919278 -2.25716e-05 
0.0165436 0.139171 -6.22323e-14 -0.0338103 0.133459 -3.85298e-14 -0.0400439 -0.10397 5.62866e-14 
-0.100144 0.153771 9.78584e-16 -0.023218 0.18477 5.12438e-05 -0.380326 0.485548 9.77822e-16 
0.0808479 0.158322 -7.80359e-14 0.0395325 -0.0270917 -5.43325e-14 0.0223214 0.0417926 3.25833e-14 
0.0931124 0.163339 7.99923e-14 0.00996573 0.0386905 2.46827e-14 0.0455602 0.163079 9.77821e-16 
0.163588 -0.0422013 7.20901e-14 0.229706 -0.0523342 6.96699e-14 0.0630458 -0.022601 -7.82605e-14 
0.0183185 -0.0298661 -6.92355e-15 -0.0573006 -0.244845 -0.000122511 -0.0733486 -0.185681 -5.20335e-14 
0.058916 -0.199315 6.66945e-14 0.00360401 -0.202338 -5.71945e-14 -0.0489937 -0.15667 4.08862e-14 
-0.325288 -0.240484 7.18587e-14 -0.0199315 -0.19591 8.21818e-14 -0.0301607 -0.217836 4.60472e-14 